1N1
 33949
  44.9844477  31.1618533  35.4915834  44.1984477  30.0828533  35.6025834
  46.3424477  29.8868533  36.7715834  46.1654477  31.0618533  36.1385834
  44.9574477  28.9198533  36.5435834  47.4294477  29.5728533  37.4815834
  47.4604477  28.5958533  38.3915834  48.6354477  27.8898533  38.6225834
  48.6084477  26.8718533  39.5815834  47.4514477  26.5928533  40.2145834
  46.3284477  27.2888533  39.9775834  45.0424477  26.9678533  40.7465834
  46.3454477  28.2788533  39.0735834  49.7224477  26.0718533  39.9145834
  50.2384477  26.1698533  41.3065834  51.7374477  26.3678533  41.2795834
  52.3634477  25.3308533  40.4475834  51.8854477  25.3408533  39.0445834
  50.3724477  25.1358533  38.9815834  53.8144477  25.6338533  40.5165834
  54.4104477  25.9488533  39.1365834  54.1204477  27.3278533  38.8095834
  53.6994477  27.8048533  39.6455834  42.8144477  29.9008533  34.9965834
  42.3064477  30.9658533  34.3755834  42.8604477  31.8808533  34.3355834
  42.2204477  28.8298533  35.1215834  41.0894477  30.8848533  33.7975834
  39.9444477  31.3388533  34.4765834  38.6854477  31.2418533  33.8715834
  40.0694477  31.9118533  35.8865834  38.5604477  30.7188533  32.5885834
  39.7034477  30.2758533  31.9075834  40.9574477  30.3558533  32.5195834
  42.3794477  29.8158533  31.6895834  44.6944477  32.0468533  34.9255834
  48.3244477  30.1348533  37.3115834  49.5484477  28.1218533  38.0745834
  44.2454477  27.6348533  40.4175834  45.2134477  27.1058533  41.8145834
  44.7524477  25.9348533  40.5555834  49.7694477  27.0168533  41.8085834
  50.0034477  25.2518533  41.8455834  51.9644477  27.3498533  40.8645834
  52.1294477  26.3018533  42.2945834  52.1344477  26.2998533  38.5895834
  52.3774477  24.5388533  38.4945834  50.1304477  24.1108533  39.2645834
  50.0194477  25.3268533  37.9675834  53.9614477  26.4958533  41.1665834
  54.3334477  24.7708533  40.9335834  55.4894477  25.7968533  39.1595834
  53.9664477  25.2928533  38.3875834  37.7984477  31.5778533  34.4085834
  39.0844477  32.2088533  36.2475834  40.7264477  32.7808533  35.8685834
  40.4864477  31.1548533  36.5515834  37.5804477  30.6538533  32.1155834
  39.6134477  29.8688533  30.9005834  31.7344477  36.7878533  16.0785834
  31.6624477  37.7018533  15.6535834  30.9704477  36.6708533  16.7285834
  31.8884477  36.1038533  15.3515834  32.9474477  36.7618533  16.8985834
  32.6834477  36.5568533  17.9355834  33.9084477  35.6768533  16.4165834
  33.8924477  35.6708533  15.3265834  34.9094477  35.9338533  16.7635834
  33.5304477  34.2998533  16.9355834  33.6164477  34.3118533  18.0225834
  32.4954477  34.1048533  16.6555834  34.4184477  33.2118533  16.3715834
  34.7244477  33.4878533  15.3625834  35.3014477  33.1088533  17.0025834
  33.6704477  31.8918533  16.3295834  34.3654477  31.0838533  16.5595834
  32.8764477  31.9108533  17.0765834  33.0764477  31.6678533  14.9785834
  33.8114477  31.6498533  14.2865834  32.5834477  30.7868533  14.9695834
  32.4324477  32.4158533  14.7655834  33.6714477  38.1078533  16.9925834
  33.6164477  38.9278533  16.0685834  34.3504477  38.3228533  18.1185834
  34.3414477  37.6258533  18.8495834  35.0394477  39.5828533  18.3725834
  34.8424477  40.2748533  17.5535834  34.5614477  40.2268533  19.6855834
  35.0194477  41.2128533  19.7615834  33.4784477  40.3338533  19.6205834
  34.9184477  39.4018533  20.9235834  35.7714477  38.4868533  20.8225834
  34.3434477  39.6798533  22.0035834  36.5554477  39.4188533  18.3835834
  37.0754477  38.3358533  18.1035834  37.2494477  40.5028533  18.7265834
  36.7474477  41.3468533  18.9625834  38.7054477  40.5578533  18.6695834
  38.9644477  40.1808533  17.6795834  39.1754477  42.0058533  18.7785834
  38.9314477  42.3938533  19.7675834  40.2534477  42.0508533  18.6265834
  38.6774477  42.6078533  18.0195834  39.4324477  39.6868533  19.6985834
  40.6624477  39.7368533  19.7795834  38.6954477  38.8978533  20.4795834
  37.6864477  38.9178533  20.4375834  39.3324477  38.0468533  21.4915834
  40.2714477  38.5008533  21.8075834  38.4334477  37.8778533  22.7185834
  37.4214477  37.6198533  22.4065834  38.8244477  37.0938533  23.3675834
  38.3204477  39.1208533  23.5635834  37.3344477  40.0608533  23.5035834
  36.5454477  39.8968533  22.7695834  37.5654477  41.0528533  24.4255834
  36.9794477  41.8608533  24.5795834  38.7204477  40.7668533  25.1045834
  39.3604477  41.4688533  26.1265834  38.9134477  42.3988533  26.4775834
  40.5204477  40.9388533  26.6285834  41.0494477  41.4608533  27.4255834
  41.0454477  39.7368533  26.1395834  41.9674477  39.3218533  26.5465834
  40.4084477  39.0368533  25.1215834  40.8544477  38.1028533  24.7795834
  39.2244477  39.5558533  24.5875834  39.7334477  36.6828533  20.9345834
  40.5754477  35.9928533  21.5075834  39.1254477  36.3108533  19.8105834
  38.4144477  36.9118533  19.4205834  39.4114477  35.0478533  19.1345834
  39.1694477  34.2088533  19.7865834  38.5664477  34.9388533  17.8635834
  38.6594477  35.8848533  17.3305834  38.9934477  34.1388533  17.2585834
  37.1064477  34.6488533  18.1245834  36.7234477  35.4158533  18.7975834
  36.5754477  34.7018533  17.1745834  36.8954477  33.2808533  18.7455834
  37.7014477  32.3628533  18.4655834  35.9234477  33.1248533  19.5135834
  40.8804477  34.8788533  18.7655834  41.5444477  35.8338533  18.3585834
  41.3784477  33.6558533  18.9105834  40.8414477  32.9508533  19.3955834
  42.6984477  33.2958533  18.4095834  43.0354477  34.0048533  17.6525834
  43.7484477  33.2058533  19.5315834  44.6624477  32.7708533  19.1265834
  44.0514477  34.5878533  20.0945834  43.1384477  35.0238533  20.5005834
  44.7954477  34.5028533  20.8865834  44.4374477  35.2278533  19.3005834
  43.2754477  32.2458533  20.6265834  42.4424477  32.7238533  21.1415834
  42.9254477  31.3378533  20.1355834  44.3534477  31.8938533  21.6295834
  44.7034477  32.8018533  22.1215834  43.9474477  31.2108533  22.3755834
  45.1864477  31.4158533  21.1155834  42.6244477  31.9508533  17.6975834
  41.6314477  31.2248533  17.8295834  43.6724477  31.6208533  16.9265834
  44.7964477  32.4988533  16.5465834  45.2904477  32.8618533  17.4475834
  44.4154477  33.3458533  15.9755834  45.6844477  31.5998533  15.7205834
  46.4624477  31.1718533  16.3525834  46.1444477  32.1758533  14.9175834
  44.7854477  30.5418533  15.1705834  45.3894477  29.6448533  15.0325834
  44.2804477  30.7858533  14.2365834  43.7534477  30.3098533  16.2775834
  42.7604477  30.0298533  15.9255834  44.2634477  29.2518533  17.2505834
  45.2944477  29.4618533  17.8975834  43.5514477  28.1328533  17.3515834
  42.6754477  28.0438533  16.8575834  43.9734477  27.0348533  18.2155834
  43.8124477  27.3048533  19.2595834  43.1714477  25.7688533  17.9095834
  42.2644477  25.8038533  18.5125834  42.9064477  25.7978533  16.8525834
  43.9304477  24.4808533  18.2075834  44.7094477  24.3578533  17.4555834
  44.3884477  24.5698533  19.1925834  43.0104477  23.2748533  18.1845834
  43.3604477  22.5738533  17.4275834  43.0304477  22.7928533  19.1615834
  41.6324477  23.6488533  17.8745834  41.4134477  23.8408533  16.9075834
  40.6624477  23.7548533  18.7785834  40.9114477  23.5088533  20.0595834
  41.8414477  23.2398533  20.3475834  40.1694477  23.5918533  20.7395834
  39.4394477  24.1028533  18.4015834  39.2474477  24.2868533  17.4275834
  38.7054477  24.1828533  19.0905834  45.4654477  26.7368533  18.0895834
  46.1474477  26.5198533  19.0885834  45.9614477  26.7288533  16.8565834
  45.3474477  26.9068533  16.0745834  47.3534477  26.3768533  16.5785834
  47.5544477  25.3658533  16.9315834  47.6364477  26.4358533  15.0675834
  47.5894477  27.4858533  14.7785834  48.6514477  26.0648533  14.9225834
  46.6694477  25.6258533  14.2035834  47.1434477  25.4408533  13.2395834
  46.5004477  24.6768533  14.7125834  45.3354477  26.3308533  13.9865834
  45.3414477  27.4778533  13.4875834  44.2814477  25.7348533  14.3015834
  48.3594477  27.2458533  17.3435834  49.5064477  26.8428533  17.5435834
  47.9334477  28.4348533  17.7665834  47.0084477  28.7608533  17.5255834
  48.8114477  29.3318533  18.5155834  49.8414477  29.1918533  18.1875834
  48.4214477  30.7958533  18.2925834  49.0244477  31.4168533  18.9545834
  48.6374477  31.0548533  17.2555834  47.0484477  31.0178533  18.5585834
  46.8394477  31.9428533  18.4095834  48.8034477  28.9908533  20.0035834
  49.5424477  29.5848533  20.7925834  47.9564477  28.0288533  20.3655834
  47.3404477  27.6378533  19.6675834  47.8754477  27.5108533  21.7275834
  48.4434477  28.1538533  22.3995834  46.4204477  27.4678533  22.2055834
  45.9274477  26.9148533  21.4065834  46.4094477  26.8728533  23.1185834
  45.6814477  28.7808533  22.4455834  45.7594477  29.4018533  21.5535834
  44.2134477  28.5118533  22.7505834  44.1354477  27.8908533  23.6425834
  43.6974477  29.4568533  22.9195834  43.7554477  27.9948533  21.9075834
  46.3354477  29.5588533  23.5755834  47.3714477  29.7778533  23.3145834
  45.7964477  30.4928533  23.7335834  46.3084477  28.9648533  24.4895834
  48.4424477  26.0988533  21.7985834  48.0174477  25.2148533  21.0475834
  49.3904477  25.8798533  22.7045834  49.8564477  26.6448533  23.1705834
  49.8554477  24.5238533  22.9685834  49.1654477  23.8068533  22.5225834
  51.2444477  24.2998533  22.3735834  51.4154477  23.2228533  22.3745834
  51.2064477  24.6608533  21.3455834  52.3664477  24.9858533  23.1045834
  52.9674477  25.5508533  22.3915834  51.9484477  25.6658533  23.8465834
  53.2364477  23.9598533  23.7945834  52.7294477  23.6058533  24.6915834
  53.4064477  23.1218533  23.1185834  54.5254477  24.5188533  24.1775834
  54.6074477  25.5258533  24.1895834  55.5864477  23.7918533  24.5105834
  55.5154477  22.4658533  24.5075834  54.6514477  22.0098533  24.2515834
  56.3254477  21.9188533  24.7615834  56.7204477  24.3908533  24.8445834
  56.7744477  25.3998533  24.8445834  57.5254477  23.8358533  25.0975834
  49.8284477  24.2028533  24.4655834  50.5174477  24.8448533  25.2685834
  49.0054477  23.2228533  24.8315834  48.4104477  22.7828533  24.1435834
  48.9104477  22.7738533  26.2175834  48.8704477  23.6398533  26.8785834
  47.6514477  21.9308533  26.4395834  47.8964477  20.9898533  25.9465834
  47.5864477  21.7708533  27.5155834  46.3104477  22.4438533  25.9195834
  46.2564477  22.2838533  24.8425834  45.1784477  21.7008533  26.5975834
  45.2314477  21.8608533  27.6745834  44.2244477  22.0708533  26.2225834
  45.2634477  20.6348533  26.3845834  46.1644477  23.9288533  26.1535834
  46.9634477  24.4588533  25.6355834  45.1994477  24.2638533  25.7725834
  46.2244477  24.1368533  27.2215834  50.1394477  21.9528533  26.5895834
  50.6364477  21.1688533  25.7815834  50.6304477  22.1308533  27.8095834
  50.2134477  22.7998533  28.4415834  51.7914477  21.3808533  28.2665834
  52.1204477  20.6948533  27.4855834  52.9414477  22.3308533  28.5975834
  52.6944477  22.7978533  29.5505834  53.8314477  21.7128533  28.7165834
  53.2064477  23.4028533  27.5645834  53.3074477  22.9298533  26.5875834
  52.3544477  24.0828533  27.5525834  54.4644477  24.1778533  27.8805834
  55.1234477  23.8408533  28.8895834  54.7994477  25.1148533  27.1255834
  51.4804477  20.5548533  29.5065834  51.5924477  19.3268533  29.5025834
  51.0774477  21.2478533  30.5665834  50.7694477  22.2028533  30.4475834
  51.0924477  20.6888533  31.9135834  51.2964477  19.6178533  31.9285834
  52.1634477  21.4058533  32.7585834  51.9564477  22.4758533  32.7515834
  52.1564477  20.9018533  34.1795834  52.3644477  19.8318533  34.1875834
  52.9214477  21.4238533  34.7545834  51.1794477  21.0848533  34.6255834
  53.5394477  21.2378533  32.1315834  53.5364477  21.6648533  31.1285834
  54.2824477  21.7508533  32.7425834  53.7864477  20.1778533  32.0745834
  49.7344477  20.8178533  32.6035834  49.2274477  21.9298533  32.7805834
  49.1574477  19.6838533  33.0015834  49.6304477  18.8038533  32.8535834
  47.8154477  19.6608533  33.5885834  47.1604477  20.3348533  33.0365834
  47.2264477  18.2528533  33.5305834  47.2354477  17.9358533  32.4875834
  47.8764477  17.6008533  34.1135834  45.8074477  18.1708533  34.0725834
  45.7914477  17.4378533  34.8795834  45.5344477  19.1498533  34.4655834
  44.8124477  17.7618533  32.9975834  43.8164477  18.0748533  33.3105834
  45.0774477  18.2688533  32.0695834  44.8234477  16.2568533  32.7745834
  45.8264477  15.9688533  32.4595834  44.5874477  15.7718533  33.7215834
  43.8344477  15.8318533  31.7385834  44.0534477  16.2808533  30.8605834
  43.8764477  14.8288533  31.6245834  42.9054477  16.0988533  32.0305834
  47.7944477  20.1718533  35.0285834  48.6904477  19.8638533  35.8145834
  46.7624477  20.9438533  35.3665834  46.0644477  21.1748533  34.6745834
  46.6464477  21.5438533  36.6955834  47.4644477  21.2028533  37.3305834
  46.7094477  23.0688533  36.5935834  45.9224477  23.3148533  35.8805834
  46.4724477  23.5108533  37.5615834  48.0404477  23.6238533  36.0935834
  48.1984477  23.2868533  35.0695834  48.0444477  25.1428533  36.1325834
  47.8874477  25.4808533  37.1565834  49.0034477  25.5138533  35.7715834
  47.2454477  25.5248533  35.4975834  49.2034477  23.0528533  36.9015834
  49.2164477  21.9678533  36.8035834  50.1414477  23.4618533  36.5275834
  49.0834477  23.3208533  37.9515834  45.3874477  21.1278533  37.4575834
  45.3604477  21.1658533  38.6905834  44.3424477  20.7438533  36.7305834
  44.3714477  20.7668533  35.7215834  43.1264477  20.2788533  37.3735834
  43.3894477  19.4178533  37.9885834  42.7654477  21.0848533  38.0125834
  42.0244477  19.8798533  36.4125834  42.0634477  20.2198533  35.2265834
  41.0354477  19.1508533  36.9245834  41.0964477  18.7988533  37.8695834
  39.8594477  18.8098533  36.1345834  39.8064477  19.4628533  35.2635834
  39.9144477  17.3618533  35.6565834  39.3444477  16.7718533  36.3745834
  39.4184477  17.3318533  34.6865834  41.3054477  16.7888533  35.5275834
  41.9164477  17.4818533  34.9495834  41.7424477  16.6588533  36.5175834
  41.2954477  15.4518533  34.8245834  42.2074477  15.1298533  34.0605834
  40.2524477  14.6648533  35.0685834  40.1924477  13.7588533  34.6255834
  39.5244477  14.9758533  35.6955834  38.5844477  19.0198533  36.9425834
  38.6284477  19.1748533  38.1645834  37.4504477  19.0258533  36.2515834
  37.4734477  18.9548533  35.2445834  36.1614477  19.1318533  36.9035834
  36.2374477  18.7428533  37.9185834  35.8584477  20.1788533  36.9375834
  35.1134477  18.3398533  36.1495834  35.4154477  17.3118533  35.5395834
  33.8764477  18.8188533  36.1885834  33.6634477  19.6188533  36.7675834
  32.7864477  18.1828533  35.4625834  33.1294477  17.2448533  35.0265834
  31.6194477  17.8848533  36.4085834  30.7104477  17.7048533  35.8345834
  31.8454477  17.0078533  37.0155834  31.2224477  19.2178533  37.5775834
  30.2154477  18.5858533  38.1725834  32.3274477  19.0588533  34.2985834
  31.1294477  19.2568533  34.0915834  33.2944477  19.5758533  33.5445834
  34.2564477  19.3658533  33.7685834  33.0244477  20.4708533  32.4245834
  32.2554477  20.0378533  31.7855834  32.5354477  21.8318533  32.9245834
  32.8514477  22.6178533  32.2385834  31.4484477  21.8338533  33.0035834
  33.0664477  22.2058533  34.2815834  34.4324477  22.3378533  34.5015834
  35.1234477  22.1708533  33.6755834  34.9184477  22.6778533  35.7545834
  35.9914477  22.7748533  35.9165834  34.0384477  22.8938533  36.8005834
  34.4154477  23.1628533  37.7865834  32.6754477  22.7668533  36.5915834
  31.9794477  22.9358533  37.4135834  32.1964477  22.4248533  35.3385834
  31.1234477  22.3248533  35.1735834  34.2724477  20.6568533  31.5715834
  34.1954477  21.1498533  30.4465834  35.4214477  20.2658533  32.1125834
  35.4334477  19.8468533  33.0315834  36.6814477  20.4248533  31.4135834
  36.8084477  19.5848533  30.7305834  36.6474477  21.3528533  30.8435834
  37.8614477  20.4718533  32.3615834  37.7714477  20.0258533  33.5075834
  38.9714477  21.0238533  31.8845834  38.9624477  21.4788533  30.9825834
  40.2254477  20.9778533  32.6225834  40.0414477  20.6968533  33.6595834
  41.1584477  19.9408533  31.9935834  41.4294477  20.3148533  31.0065834
  42.0484477  19.8928533  32.6205834  40.5574477  18.5498533  31.8605834
  40.5054477  18.1128533  32.8575834  39.5504477  18.6568533  31.4575834
  41.3744477  17.6398533  30.9495834  42.4304477  18.0848533  30.4485834
  40.9594477  16.4798533  30.7335834  40.9244477  22.3298533  32.6285834
  40.5064477  23.2638533  31.9425834  42.0094477  22.4168533  33.3925834
  42.2694477  21.6388533  33.9815834  42.8434477  23.6078533  33.4165834
  42.6034477  24.2838533  32.5955834  42.6914477  24.3648533  34.7325834
  42.8984477  23.6888533  35.5625834  43.6624477  25.5278533  34.7745834
  43.4554477  26.2048533  33.9455834  43.5484477  26.0638533  35.7165834
  44.6824477  25.1528533  34.6915834  41.2564477  24.8408533  34.9015834
  40.5864477  23.9818533  34.9045834  41.1604477  25.3798533  35.8445834
  40.9934477  25.5028533  34.0765834  44.3004477  23.2258533  33.2485834
  44.8354477  22.4368533  34.0235834  44.9414477  23.7908533  32.2335834
  44.4684477  24.4768533  31.6625834  46.3234477  23.4658533  31.9175834
  46.6984477  22.7058533  32.6035834  46.4094477  22.9208533  30.4885834
  45.8134477  23.5368533  29.8145834  47.4484477  22.9218533  30.1585834
  45.9144477  21.5198533  30.3365834  44.6234477  21.0848533  30.4325834
  43.8624477  21.8358533  30.6465834  44.5684477  19.7258533  30.2265834
  43.7304477  19.1618533  30.2475834  45.8364477  19.2598533  29.9905834
  46.2874477  17.9648533  29.7305834  45.5584477  17.1558533  29.6985834
  47.6314477  17.7928533  29.5305834  48.0194477  16.7948533  29.3245834
  48.5254477  18.8718533  29.5845834  49.5934477  18.7248533  29.4245834
  48.0774477  20.1568533  29.8425834  48.8114477  20.9618533  29.8715834
  46.7084477  20.3648533  30.0525834  47.2044477  24.6918533  32.0035834
  46.7424477  25.8138533  31.7695834  48.4684477  24.4828533  32.3535834
  48.7394477  23.6388533  32.8375834  49.4984477  25.4518533  32.0325834
  49.1644477  26.4538533  32.2995834  50.7674477  25.1398533  32.8085834
  50.4594477  24.8548533  33.8145834  51.2354477  24.2868533  32.3165834
  51.7584477  26.2818533  32.8895834  51.2134477  27.2128533  32.7295834
  52.1914477  26.2818533  33.8895834  53.0834477  26.1528533  31.6695834
  53.9974477  24.7418533  32.3035834  53.3454477  23.8688533  32.3315834
  54.8484477  24.5378533  31.6545834  54.3534477  24.9608533  33.3105834
  49.7314477  25.2938533  30.5285834  49.2704477  24.3088533  29.9365834
  50.3984477  26.2598533  29.9015834  50.7204477  27.0758533  30.4025834
  50.6824477  26.1688533  28.4795834  51.2894477  25.2828533  28.2965834
  49.7414477  26.0818533  27.9365834  51.4284477  27.3888533  27.9805834
  51.8314477  28.2398533  28.7785834  51.6154477  27.4858533  26.6655834
  51.3694477  26.7248533  26.0485834  52.2764477  28.6558533  26.0925834
  52.3024477  29.4468533  26.8425834  53.7144477  28.3448533  25.6575834
  53.6914477  27.6868533  24.7895834  54.4404477  29.6288533  25.2995834
  54.4644477  30.2878533  26.1675834  55.4604477  29.3968533  24.9925834
  53.9194477  30.1258533  24.4815834  54.4104477  27.7038533  26.7335834
  55.3104477  27.5088533  26.4615834  51.4844477  29.2498533  24.9285834
  50.6884477  28.5578533  24.2805834  51.6934477  30.5408533  24.6825834
  52.3694477  31.0508533  25.2325834  50.9614477  31.2608533  23.6425834
  50.3074477  30.5758533  23.1025834  50.1044477  32.3588533  24.2745834
  49.5454477  31.9538533  25.1185834  50.7484477  33.1668533  24.6205834
  49.0974477  32.9788533  23.3495834  48.5834477  32.4358533  22.2045834
  48.9434477  31.4468533  21.9215834  47.6794477  33.3038533  21.6355834
  47.1584477  33.1378533  20.7865834  47.5994477  34.4318533  22.4115834
  46.8284477  35.5818533  22.2485834  46.1694477  35.6478533  21.3835834
  46.9504477  36.5638533  23.1955834  46.3624477  37.4768533  23.1015834
  47.8164477  36.4238533  24.2875834  47.9074477  37.2118533  25.0355834
  48.5824477  35.2818533  24.4505834  49.2384477  35.2198533  25.3185834
  48.4784477  34.2608533  23.4985834  51.9284477  31.8878533  22.6475834
  52.7494477  32.7308533  23.0225834  51.8184477  31.4858533  21.3825834
  51.1314477  30.7888533  21.1315834  52.7164477  31.9808533  20.3395834
  52.5744477  31.3978533  19.4295834  52.4364477  33.4588533  20.0245834
  52.8994477  34.0818533  20.7895834  52.8784477  33.6868533  19.0545834
  50.9454477  33.7818533  19.9685834  50.4534477  34.6158533  20.7335834
  50.2274477  33.1358533  19.0555834  49.2364477  33.3138533  18.9785834
  50.6764477  32.4698533  18.4435834  54.1804477  31.7948533  20.7425834
  55.0044477  32.6958533  20.5555834  54.4824477  30.6288533  21.3155834
  53.7404477  29.9648533  21.4855834  55.8354477  30.2668533  21.7085834
  55.7464477  29.3538533  22.2975834  56.3724477  30.0508533  20.7845834
  56.6194477  31.2968533  22.5075834  57.8444477  31.2178533  22.5985834
  55.9184477  32.2668533  23.0875834  54.9134477  32.2888533  22.9885834
  56.5584477  33.3088533  23.8845834  57.6224477  33.1028533  23.9985834
  56.3924477  34.6948533  23.2325834  56.4634477  35.4568533  24.0085834
  57.4704477  34.9398533  22.1805834  57.4004477  34.1788533  21.4035834
  57.3284477  35.9258533  21.7365834  58.4534477  34.8908533  22.6485834
  55.0944477  34.7898533  22.6265834  54.9934477  35.6538533  22.2205834
  55.9644477  33.4118533  25.2815834  56.6824477  33.5668533  26.2685834
  54.6404477  33.3318533  25.3495834  54.1114477  32.9978533  24.5565834
  53.9094477  33.8028533  26.5205834  54.5864477  34.2908533  27.2215834
  52.8114477  34.8148533  26.1055834  52.0124477  34.2748533  25.5965834
  52.2434477  35.5338533  27.3215834  53.0414477  36.0738533  27.8305834
  51.4754477  36.2378533  27.0015834  51.8064477  34.8048533  28.0035834
  53.3594477  35.7808533  25.1995834  52.6754477  36.4048533  24.9455834
  53.2904477  32.6818533  27.3575834  52.4974477  31.8788533  26.8525834
  53.6594477  32.6368533  28.6375834  54.3664477  33.2688533  28.9855834
  53.1004477  31.6518533  29.5555834  53.1434477  30.6638533  29.0975834
  53.8784477  31.6148533  30.8695834  54.8534477  32.0678533  30.6885834
  53.3294477  32.2138533  31.5955834  54.0674477  30.1978533  31.4165834
  53.2054477  29.6078533  31.1055834  54.9694477  29.7878533  30.9625834
  54.1964477  30.1488533  32.9405834  53.8264477  31.0938533  33.3385834
  53.5714477  29.3328533  33.3035834  55.5674477  29.9408533  33.4215834
  55.9334477  30.6338533  34.0585834  56.3444477  28.9108533  33.0865834
  55.9104477  27.9808533  32.2425834  54.9824477  28.0528533  31.8495834
  56.5104477  27.2058533  31.9975834  57.5694477  28.8148533  33.5915834
  57.9074477  29.5228533  34.2275834  58.1574477  28.0338533  33.3375834
  51.6324477  31.9628533  29.8235834  51.2734477  33.0908533  30.1705834
  50.7864477  30.9558533  29.6475834  51.1284477  30.0508533  29.3565834
  49.3584477  31.1198533  29.8445834  49.1234477  32.0358533  30.3855834
  48.5884477  31.1268533  28.5025834  47.5264477  30.9988533  28.7095834
  48.8054477  32.4388533  27.7475834  49.8674477  32.5678533  27.5395834
  48.2524477  32.4138533  26.8085834  48.4514477  33.2718533  28.3555834
  48.9964477  29.9308533  27.6485834  48.7694477  29.0078533  28.1825834
  48.4454477  29.9508533  26.7085834  50.0664477  29.9778533  27.4435834
  48.7824477  30.0078533  30.7055834  49.4444477  29.0058533  30.9875834
  47.5364477  30.2108533  31.1205834  47.1344477  31.1318533  31.0255834
  46.7214477  29.1638533  31.6855834  47.2294477  28.2078533  31.8085834
  46.1594477  29.5898533  33.0255834  45.6394477  30.5418533  32.9165834
  45.4604477  28.8338533  33.3835834  46.9724477  29.7008533  33.7425834
  45.6044477  28.9578533  30.6875834  45.0494477  29.9338533  30.1595834
  45.2844477  27.7008533  30.4015834  45.7934477  26.9268533  30.8045834
  44.1994477  27.4058533  29.4735834  43.7044477  28.3268533  29.1665834
  44.6904477  26.6468533  28.2255834  45.1434477  25.7048533  28.5355834
  43.5274477  26.3648533  27.2895834  43.0744477  27.3058533  26.9785834
  43.8884477  25.8278533  26.4125834  42.7834477  25.7578533  27.8055834
  45.7804477  27.4328533  27.4985834  45.5224477  27.4438533  26.4395834
  45.7614477  28.4508533  27.8875834  47.1624477  26.8548533  27.6725834
  47.1824477  25.8368533  27.2835834  47.8834477  27.4648533  27.1285834
  47.4214477  26.8438533  28.7315834  43.1274477  26.5688533  30.1485834
  43.4324477  25.6068533  30.8475834  41.8724477  26.9328533  29.9285834
  41.6734477  27.7558533  29.3785834  40.7554477  26.1908533  30.4875834
  41.1284477  25.3968533  31.1345834  39.8584477  27.1058533  31.3085834
  40.4644477  27.5358533  32.1055834  39.5054477  27.9008533  30.6515834
  38.6724477  26.3858533  31.9095834  38.0594477  25.9788533  31.1055834
  39.0324477  25.5718533  32.5385834  37.8434477  27.3368533  32.7425834
  38.5024477  28.0808533  33.1905834  37.1204477  27.8348533  32.0965834
  37.1114477  26.5878533  33.8355834  36.4774477  25.8338533  33.3695834
  37.8504477  26.0988533  34.4705834  36.2694477  27.5018533  34.6645834
  35.5844477  27.9548533  34.0765834  35.7984477  26.9678533  35.3805834
  36.8564477  28.2008533  35.0965834  39.9544477  25.5528533  29.3635834
  39.5184477  26.2298533  28.4385834  39.7554477  24.2458533  29.4535834
  39.9564477  23.7538533  30.3125834  39.2644477  23.4808533  28.3215834
  39.3024477  24.0878533  27.4165834  40.1134477  22.2308533  28.1065834
  39.8624477  21.7908533  27.1415834  41.5954477  22.5898533  28.1315834
  41.8474477  23.0298533  29.0965834  42.1904477  21.6898533  27.9775834
  41.8094477  23.3068533  27.3385834  39.8354477  21.2818533  29.1435834
  40.3694477  20.4948533  29.0085834  37.8254477  23.0348533  28.4785834
  37.2594477  23.0478533  29.5765834  37.2354477  22.6338533  27.3605834
  37.6924477  22.7508533  26.4675834  35.9124477  22.0428533  27.3835834
  35.4234477  22.2678533  28.3315834  35.0544477  22.6058533  26.2445834
  35.3784477  23.6438533  26.1635834  35.2954477  22.0768533  25.3225834
  33.5474477  22.5608533  26.4765834  33.1684477  21.5778533  26.1955834
  33.2434477  22.8198533  27.9385834  33.6214477  23.8028533  28.2205834
  32.1654477  22.7868533  28.0975834  33.7244477  22.0568533  28.5505834
  32.8064477  23.5538533  25.5855834  32.9984477  23.3168533  24.5385834
  31.7364477  23.4898533  25.7815834  33.1554477  24.5648533  25.7985834
  36.0504477  20.5298533  27.2465834  36.7124477  20.0348533  26.3245834
  35.4754477  19.7988533  28.1965834  35.2624477  20.1858533  29.1045834
  35.1254477  18.4118533  27.9385834  35.9594477  17.9178533  27.4405834
  34.8134477  17.6588533  29.2295834  34.9054477  18.3718533  30.0485834
  33.7814477  17.3158533  29.1605834  35.7334477  16.4598533  29.4905834
  35.8284477  15.8738533  28.5765834  36.7164477  16.8198533  29.7945834
  35.1484477  15.5878533  30.5945834  35.4914477  15.9758533  31.5535834
  34.0614477  15.6558533  30.5435834  35.5714477  14.1358533  30.4555834
  35.3724477  13.8258533  29.4295834  36.6424477  14.0798533  30.6505834
  34.8464477  13.2318533  31.3975834  33.8544477  13.2838533  31.2175834
  35.1634477  12.2818533  31.2645834  35.0314477  13.5178533  32.3485834
  33.8904477  18.5668533  27.0575834  32.8164477  18.9158533  27.5475834
  34.0584477  18.3288533  25.7455834  34.9984477  17.3068533  25.2455834
  34.6304477  16.3158533  25.5125834  35.9774477  17.4638533  25.6975834
  35.0094477  17.5378533  23.7625834  35.2004477  16.5988533  23.2425834
  35.7854477  18.2588533  23.5055834  33.6544477  18.0748533  23.4375834
  32.9184477  17.2888533  23.2675834  33.7144477  18.7128533  22.5555834
  33.2524477  18.9108533  24.6625834  33.5894477  19.9418533  24.5565834
  31.7294477  18.8888533  24.8645834  31.0834477  19.9198533  24.6615834
  31.1664477  17.7448533  25.2435834  31.7384477  16.9448533  25.4725834
  29.7204477  17.6098533  25.3405834  29.2814477  18.3868533  24.7145834
  29.4604477  16.6298533  24.9395834  29.1594477  17.7328533  26.7465834
  27.9694477  17.5038533  26.9665834  30.0154477  18.1058533  27.6955834
  30.9584477  18.3588533  27.4365834  29.6664477  18.0888533  29.1175834
  29.0474477  17.2208533  29.3425834  30.9304477  18.0358533  30.0015834
  31.3864477  19.0258533  30.0245834  30.5784477  17.6078533  31.4175834
  30.1224477  16.6178533  31.3955834  31.4834477  17.5768533  32.0235834
  29.8764477  18.3208533  31.8495834  31.8714477  17.1108533  29.4425834
  32.6564477  17.0798533  29.9945834  28.7994477  19.2708533  29.5505834
  28.0734477  19.1838533  30.5375834  28.8744477  20.3748533  28.8155834
  29.5424477  20.4388533  28.0605834  28.0454477  21.5418533  29.1085834
  27.0264477  21.2178533  29.3205834  28.5764477  22.3098533  30.3195834
  27.7264477  22.8098533  30.7835834  28.9884477  21.5758533  31.0125834
  29.6414477  23.3358533  29.9775834  30.6154477  22.8488533  30.0115834
  29.4554477  23.7048533  28.9695834  29.6324477  24.7228533  31.1275834
  28.1044477  25.5458533  30.6615834  27.2664477  24.8618533  30.7985834
  27.9604477  26.4268533  31.2875834  28.1584477  25.8488533  29.6155834
  27.9584477  22.4738533  27.9055834  28.7694477  22.3858533  26.9805834
  26.9704477  23.3648533  27.9275834  26.3364477  23.3858533  28.7135834
  26.7324477  24.2868533  26.8205834  26.7284477  23.7378533  25.8785834
  25.3864477  24.9868533  26.9825834  24.5904477  24.2488533  26.8855834
  25.3404477  25.4408533  27.9725834  25.2244477  25.9888533  25.9955834
  24.3734477  26.4178533  26.1125834  27.8384477  25.3258533  26.6995834
  27.9494477  26.2178533  27.5415834  28.6394477  25.2268533  25.6255834
  28.3494477  24.3468533  24.4815834  27.5234477  24.7608533  23.9035834
  28.0774477  23.3558533  24.8435834  29.6414477  24.3428533  23.7185834
  29.4464477  24.1788533  22.6585834  30.2914477  23.5528533  24.0935834
  30.2414477  25.6858533  23.9605834  29.7984477  26.3948533  23.2605834
  31.3264477  25.7098533  23.8635834  29.8364477  26.0478533  25.3965834
  30.5814477  25.7748533  26.1435834  29.5414477  27.5418533  25.4955834
  30.4164477  28.3108533  25.8875834  28.3274477  27.9408533  25.1295834
  27.6854477  27.2878533  24.7035834  27.8964477  29.3218533  25.2985834
  28.5234477  29.9818533  24.6995834  26.4444477  29.4838533  24.8465834
  26.4594477  29.6758533  23.7735834  25.9384477  28.5378533  25.0385834
  25.7014477  30.6068533  25.5515834  24.8694477  30.1708533  26.1045834
  26.3994477  31.0688533  26.2505834  25.1764477  31.6568533  24.5955834
  24.1184477  31.4158533  23.9755834  25.8144477  32.7258533  24.4725834
  28.0364477  29.7348533  26.7605834  28.7794477  30.6618533  27.0965834
  27.3224477  29.0278533  27.6285834  26.6974477  28.3078533  27.2935834
  27.3604477  29.2978533  29.0565834  27.1654477  30.3578533  29.2215834
  26.2884477  28.4888533  29.7715834  26.4754477  27.4258533  29.6225834
  26.3114477  28.7158533  30.8375834  25.3094477  28.7448533  29.3675834
  28.7394477  28.9948533  29.6355834  29.0934477  29.4948533  30.7025834
  29.5144477  28.1758533  28.9305834  29.1474477  27.7158533  28.1095834
  30.8834477  27.8748533  29.3385834  30.9134477  27.6728533  30.4095834
  31.4084477  26.6438533  28.5935834  30.8684477  25.7488533  28.9035834
  31.2844477  26.7898533  27.5205834  32.8734477  26.3658533  28.8245834
  33.2994477  25.7218533  29.9725834  32.5614477  25.4198533  30.7155834
  34.6424477  25.4598533  30.1845834  34.9604477  24.9548533  31.0965834
  35.5784477  25.8378533  29.2425834  36.6364477  25.6328533  29.4065834
  35.1704477  26.4768533  28.0905834  35.9054477  26.7778533  27.3435834
  33.8224477  26.7368533  27.8825834  33.4984477  27.2378533  26.9705834
  31.8024477  29.0698533  29.0895834  32.8884477  29.1698533  29.6675834
  31.3614477  29.9778533  28.2275834  30.4784477  29.8488533  27.7545834
  32.1704477  31.1338533  27.8735834  33.1734477  31.0218533  28.2835834
  32.2764477  31.2698533  26.3535834  31.2574477  31.1088533  26.0015834
  32.5904477  32.2828533  26.1035834  33.2134477  30.2648533  25.6795834
  32.9694477  29.2628533  26.0335834  33.0614477  30.3188533  24.1705834
  33.3054477  31.3198533  23.8155834  33.7364477  29.5968533  23.7105834
  32.0334477  30.0778533  23.8995834  34.6554477  30.5198533  26.0905834
  34.7484477  30.4198533  27.1715834  35.3064477  29.7958533  25.6015834
  34.9454477  31.5278533  25.7935834  31.6514477  32.4298533  28.4835834
  32.2464477  33.4838533  28.2795834  30.5504477  32.3578533  29.2285834
  30.0344477  31.4938533  29.3145834  30.0244477  33.5488533  29.8945834
  29.8834477  34.3408533  29.1585834  28.6804477  33.2658533  30.5715834
  28.1444477  34.2138533  30.6245834  28.1364477  32.5768533  29.9245834
  28.7934477  32.6668533  31.9715834  29.4494477  31.7968533  31.9305834
  29.2244477  33.4148533  32.6365834  27.4464477  32.2338533  32.5335834
  26.5524477  31.8248533  31.7875834  27.2964477  32.3198533  33.8535834
  26.4224477  32.0448533  34.2785834  28.0574477  32.6588533  34.4245834
  31.0414477  34.0588533  30.9135834  31.0504477  35.2438533  31.2565834
  31.8994477  33.1528533  31.3815834  31.7964477  32.1878533  31.1025834
  32.9684477  33.4928533  32.3085834  32.5684477  34.0598533  33.1495834
  33.6204477  32.2158533  32.8455834  32.8144477  31.5838533  33.2195834
  34.1014477  31.7268533  31.9975834  34.6504477  32.4398533  33.9565834
  35.3794477  33.1678533  33.6005834  34.1224477  32.8468533  34.8185834
  35.3714477  31.1528533  34.3615834  35.2384477  30.1358533  33.6455834
  36.0764477  31.1578533  35.3935834  34.0094477  34.3618533  31.6005834
  34.7294477  35.1308533  32.2375834  34.0824477  34.2238533  30.2785834
  33.5444477  33.5018533  29.8215834  34.9744477  35.0408533  29.4655834
  35.8384477  35.3168533  30.0705834  35.4564477  34.2608533  28.2625834
  34.6034477  33.9858533  27.6415834  36.1444477  34.8758533  27.6815834
  35.9694477  33.3588533  28.5955834  34.2934477  36.3358533  29.0305834
  34.9504477  37.3718533  28.9105834  32.9834477  36.2818533  28.7895834
  32.4944477  35.3978533  28.7835834  32.2254477  37.4968533  28.4835834
  32.6304477  37.9548533  27.5815834  30.7404477  37.1948533  28.2545834
  30.3564477  36.7808533  29.1865834  30.2534477  38.1488533  28.0535834
  30.4514477  36.2248533  27.1095834  30.8074477  35.2348533  27.3945834
  29.3734477  36.1918533  26.9525834  31.1214477  36.6258533  25.8005834
  31.7144477  35.7878533  25.1155834  31.0264477  37.9078533  25.4465834
  31.4534477  38.2248533  24.5875834  30.5274477  38.5568533  26.0385834
  32.3754477  38.5008533  29.6185834  32.5214477  39.7008533  29.3815834
  32.3354477  37.9988533  30.8525834  32.1294477  37.0198533  30.9915834
  32.5344477  38.8378533  32.0285834  31.9194477  39.7368533  31.9825834
  32.2054477  38.0798533  33.3365834  32.8134477  37.1758533  33.3825834
  32.4974477  38.9518533  34.5565834  31.8894477  39.8558533  34.5115834
  32.2584477  38.3988533  35.4645834  33.5524477  39.2248533  34.5645834
  30.7564477  37.6308533  33.3435834  30.5764477  36.9678533  32.4965834
  30.5444477  37.0998533  34.2715834  30.1054477  38.5018533  33.2675834
  33.9744477  39.3478533  32.0795834  34.2154477  40.5228533  32.3655834
  34.9304477  38.4608533  31.8055834  34.6994477  37.4928533  31.6325834
  36.3434477  38.8358533  31.8725834  36.5254477  39.3888533  32.7935834
  37.2564477  37.6028533  31.8525834  37.0194477  37.0428533  30.9475834
  38.2834477  37.9648533  31.7975834  37.1024477  36.6888533  33.0725834
  36.9604477  37.3198533  33.9495834  36.2164477  36.0728533  32.9215834
  38.5294477  35.6188533  33.3375834  38.2554477  34.3408533  32.1455834
  38.2264477  34.7748533  31.1465834  39.0634477  33.6118533  32.2015834
  37.3064477  33.8468533  32.3535834  36.7554477  39.8358533  30.7815834
  37.7754477  40.5118533  30.9195834  35.9654477  39.9408533  29.7135834
  35.1414477  39.3648533  29.6165834  36.2874477  40.8798533  28.6365834
  37.3394477  40.7808533  28.3705834  35.4394477  40.6028533  27.3905834
  34.3994477  40.5968533  27.7165834  35.6014477  41.4398533  26.7115834
  35.7544477  39.2928533  26.6685834  36.7464477  39.3608533  26.2215834
  35.7364477  38.4748533  27.3885834  34.7244477  39.0318533  25.5785834
  33.7394477  38.9868533  26.0425834  34.7554477  39.8618533  24.8725834
  34.9974477  37.7338533  24.8445834  35.9904477  37.7858533  24.3985834
  34.9634477  36.9128533  25.5605834  33.9864477  37.5028533  23.7765834
  34.0184477  38.2638533  23.1125834  34.1894477  36.6338533  23.3035834
  33.0654477  37.4548533  24.1895834  36.0414477  42.3028533  29.1155834
  36.8054477  43.2228533  28.8185834  34.9714477  42.4548533  29.8875834
  34.4404477  41.6348533  30.1435834  34.5084477  43.7488533  30.3565834
  34.6214477  44.4998533  29.5745834  33.0294477  43.6488533  30.7275834
  32.9574477  42.9898533  31.5925834  32.6974477  44.6488533  31.0055834
  32.1454477  43.1138533  29.6055834  32.7294477  42.4158533  29.0055834
  31.2984477  42.5908533  30.0495834  31.6364477  44.2438533  28.7175834
  31.9244477  45.1988533  29.1575834  32.0864477  44.1488533  27.7295834
  30.1144477  44.1798533  28.5925834  29.8694477  43.4238533  27.8465834
  29.7094477  43.8798533  29.5595834  29.5184477  45.4898533  28.1885834
  29.8924477  45.7678533  27.2925834  28.5154477  45.3958533  28.1195834
  29.7444477  46.1898533  28.8805834  35.3034477  44.2368533  31.5605834
  35.4264477  45.4418533  31.7825834  35.8384477  43.3028533  32.3425834
  35.6794477  42.3238533  32.1545834  36.5884477  43.6648533  33.5455834
  36.3874477  44.7038533  33.8085834  36.1764477  42.7738533  34.7215834
  36.4274477  41.7788533  34.3535834  36.7974477  43.0078533  35.5865834
  34.6944477  42.8098533  35.1305834  34.0914477  42.7358533  34.2255834
  34.3284477  41.6678533  36.0825834  34.9304477  41.7418533  36.9875834
  33.2724477  41.7358533  36.3425834  34.5214477  40.7118533  35.5955834
  34.3154477  44.1608533  35.7365834  34.4914477  44.9498533  35.0055834
  33.2614477  44.1518533  36.0145834  34.9224477  44.3458533  36.6225834
  38.1044477  43.6068533  33.3125834  38.6394477  42.5818533  32.8715834
  38.7844477  44.7148533  33.6005834  38.2864477  45.5358533  33.9135834
  40.2344477  44.8028533  33.4425834  40.6664477  43.8038533  33.4985834
  40.6084477  45.4228533  32.0955834  40.5784477  44.6348533  31.3425834
  39.8644477  46.1818533  31.8565834  41.9994477  46.0598533  32.1115834
  41.9454477  46.9528533  32.7345834  42.6844477  45.3428533  32.5635834
  42.5064477  46.4408533  30.7175834  42.5774477  45.5448533  30.1005834
  41.8114477  47.1438533  30.2585834  43.8274477  47.0668533  30.7885834
  43.9404477  47.8218533  31.4505834  44.8744477  46.7058533  30.0525834
  44.7654477  45.7188533  29.1725834  43.8834477  45.2398533  29.0615834
  45.5654477  45.4508533  28.6175834  46.0314477  47.3398533  30.1935834
  46.1124477  48.0948533  30.8595834  46.8264477  47.0648533  29.6335834
  40.8614477  45.6258533  34.5615834  40.6474477  46.8368533  34.6595834
  41.6564477  44.9748533  35.3975834  41.8714477  43.9968533  35.2685834
  42.2214477  45.6598533  36.5505834  42.5034477  46.6788533  36.2845834
  41.1824477  45.7168533  37.6675834  40.2374477  46.1198533  37.3025834
  41.0234477  44.7078533  38.0475834  41.5824477  46.5568533  38.8385834
  42.2414477  46.0398533  39.9375834  42.4504477  47.0018533  40.8165834
  42.9654477  46.7938533  41.7545834  41.9454477  48.1248533  40.3345834
  41.9564477  49.0258533  40.7915834  41.3954477  47.8738533  39.0995834
  40.9244477  48.6808533  38.5385834  43.4504477  44.8988533  36.9815834
  43.5274477  43.6868533  36.7675834  44.4154477  45.5928533  37.5755834
  44.3224477  46.5848533  37.7405834  45.6664477  44.9418533  37.9575834
  46.1174477  44.4708533  37.0845834  46.6494477  45.9578533  38.5245834
  47.5714477  45.4298533  38.7685834  46.8494477  46.6978533  37.7495834
  46.1204477  46.6588533  39.7715834  45.4304477  47.4368533  39.4445834
  45.5824477  45.9258533  40.3735834  47.2264477  47.2808533  40.6015834
  48.3964477  46.8468533  40.4475834  46.9194477  48.1938533  41.4085834
  45.4534477  43.8178533  38.9825834  46.2574477  42.8788533  39.0645834
  44.3754477  43.9178533  39.7605834  43.7684477  44.7228533  39.6965834
  44.1024477  42.9238533  40.8005834  44.9664477  42.2698533  40.9205834
  43.8194477  43.6058533  42.1335834  42.9374477  44.2348533  42.0105834
  43.6124477  42.8308533  42.8715834  44.9924477  44.4618533  42.6095834
  45.1974477  45.2218533  41.8555834  44.7134477  44.9458533  43.5455834
  46.2424477  43.6128533  42.8295834  46.0314477  42.8368533  43.5655834
  46.5384477  43.1488533  41.8885834  47.3774477  44.5038533  43.3385834
  47.5934477  45.2538533  42.5775834  47.0434477  44.9988533  44.2505834
  48.6014477  43.7218533  43.6215834  48.9114477  43.2638533  42.7765834
  49.3264477  44.3408533  43.9545834  48.4014477  43.0268533  44.3265834
  42.9784477  41.9628533  40.4425834  42.4334477  41.2788533  41.3185834
  42.6344477  41.9068533  39.1585834  42.9834477  42.5998533  38.5115834
  41.7754477  40.8488533  38.6415834  41.4414477  40.2208533  39.4675834
  40.5484477  41.4168533  37.9335834  41.0124477  41.9228533  37.0865834
  39.9874477  40.5528533  37.5775834  39.5984477  42.3838533  38.6475834
  39.9844477  43.3998533  38.5625834  38.2194477  42.3098533  38.0095834
  37.8334477  41.2938533  38.0945834  37.5454477  42.9988533  38.5185834
  38.2904477  42.5838533  36.9565834  39.4904477  42.1338533  40.1405834
  40.4724477  42.2428533  40.5995834  38.8014477  42.8548533  40.5815834
  39.1194477  41.1238533  40.3145834  42.6194477  40.0688533  37.6365834
  43.3924477  40.6788533  36.8755834  42.5014477  38.7388533  37.6275834
  41.9134477  38.2558533  38.2915834  43.2724477  37.9418533  36.6785834
  44.3304477  38.1898533  36.7645834  43.1034477  36.4248533  36.8895834
  42.0594477  36.1508533  36.7335834  43.9824477  35.6668533  35.8945834
  45.0264477  35.9398533  36.0495834  43.8614477  34.5938533  36.0455834
  43.6874477  35.9258533  34.8775834  43.4784477  36.0408533  38.3205834
  42.8324477  36.5708533  39.0205834  43.3534477  34.9658533  38.4535834
  44.5174477  36.3118533  38.5095834  42.8554477  38.3158533  35.2565834
  41.6654477  38.4258533  34.9595834  43.8344477  38.5138533  34.3805834
  44.7944477  38.3358533  34.6395834  43.5654477  39.0738533  33.0505834
  42.6944477  39.7288533  33.0845834  44.7764477  39.8928533  32.5865834
  44.9124477  40.6798533  33.3285834  45.6294477  39.2148533  32.6165834
  44.6704477  40.5198533  31.1915834  44.4494477  39.7398533  30.4625834
  43.8644477  41.2538533  31.1935834  45.9684477  41.2198533  30.7815834
  46.9024477  41.3568533  31.5845834  46.0314477  41.6618533  29.5265834
  46.8644477  42.1318533  29.2005834  45.2464477  41.5248533  28.9065834
  43.2034477  38.0108533  32.0105834  43.9144477  37.0118533  31.8375834
  42.0784477  38.2138533  31.3355834  41.4394477  38.9448533  31.6125834
  41.7274477  37.3878533  30.1835834  41.8104477  36.3328533  30.4455834
  40.2934477  37.6698533  29.7435834  39.6864477  37.2908533  30.5655834
  40.1634477  38.7488533  29.6645834  39.8544477  37.0058533  28.4365834
  40.6584477  37.1008533  27.7065834  39.5414477  35.5368533  28.6555834
  38.7374477  35.4408533  29.3845834  39.2314477  35.0858533  27.7125834
  40.4304477  35.0268533  29.0265834  38.6544477  37.7138533  27.8415834
  38.9104477  38.7528533  27.6355834  38.3644477  37.2208533  26.9135834
  37.8244477  37.6778533  28.5465834  42.6794477  37.6938533  29.0255834
  42.9544477  38.8618533  28.7405834  43.1844477  36.6588533  28.3585834
  43.0084477  35.7138533  28.6685834  44.0604477  36.8588533  27.1985834
  44.3784477  37.9008533  27.1615834  45.3034477  35.9708533  27.2785834
  44.9694477  34.9868533  27.6065834  45.7174477  35.8968533  26.2725834
  46.3624477  36.4808533  28.2215834  46.2004477  37.6858533  28.8925834
  45.2904477  38.2628533  28.7285834  47.1744477  38.1578533  29.7605834
  47.0414477  39.1068533  30.2795834  48.3204477  37.4198533  29.9585834
  49.2874477  37.8858533  30.8275834  49.0554477  38.7248533  31.2315834
  48.5004477  36.2178533  29.2995834  49.4054477  35.6328533  29.4605834
  47.5294477  35.7608533  28.4365834  47.6704477  34.8178533  27.9075834
  43.3564477  36.6038533  25.8655834  43.5404477  37.3568533  24.9045834
  42.5584477  35.5408533  25.8065834  42.3774477  34.9848533  26.6305834
  41.9634477  35.1178533  24.5405834  41.4724477  35.9748533  24.0805834
  43.0434477  34.6118533  23.5965834  43.5384477  33.7478533  24.0395834
  42.5914477  34.3238533  22.6475834  43.7754477  35.4008533  23.4245834
  40.9144477  34.0408533  24.7465834  40.9414477  33.3258533  25.7495834
  39.9964477  33.9278533  23.7895834  39.9414477  34.6178533  23.0545834
  39.0334477  32.8328533  23.7835834  39.2914477  32.0798533  24.5275834
  37.6024477  33.3248533  24.0585834  36.9404477  32.4628533  24.1415834
  37.5564477  34.1248533  25.3485834  38.2184477  34.9868533  25.2655834
  36.5374477  34.4658533  25.5285834  37.8814477  33.4968533  26.1775834
  37.1004477  34.1638533  22.8865834  37.1014477  33.5598533  21.9795834
  36.0864477  34.5068533  23.0925834  37.7534477  35.0258533  22.7495834
  39.0554477  32.1168533  22.4385834  39.3954477  32.7138533  21.4145834
  38.6934477  30.8368533  22.4515834  38.4764477  30.3938533  23.3325834
  38.6084477  30.0348533  21.2345834  38.7094477  30.6428533  20.3355834
  39.6914477  28.9448533  21.2145834  39.5634477  28.2998533  22.0845834
  39.5824477  28.1118533  19.9455834  39.7114477  28.7558533  19.0755834
  40.3564477  27.3438533  19.9465834  38.6014477  27.6378533  19.9045834
  41.0764477  29.5738533  21.3435834  41.1404477  30.1228533  22.2835834
  41.8344477  28.7908533  21.3275834  41.2444477  30.2578533  20.5115834
  37.2294477  29.3868533  21.1745834  36.9784477  28.3878533  21.8565834
  36.3384477  29.9558533  20.3655834  36.6264477  30.6988533  19.7455834
  34.9144477  29.5998533  20.4105834  34.6674477  29.1788533  21.3845834
  34.0494477  30.8458533  20.1815834  34.2214477  31.2038533  19.1665834
  33.0024477  30.5648533  20.2945834  34.3644477  31.8728533  21.1035834
  33.8074477  32.6368533  20.9345834  34.4704477  28.4998533  19.4415834
  33.3274477  28.5048533  18.9815834  35.3624477  27.5608533  19.1395834
  36.3164477  27.6518533  19.4585834  35.0294477  26.4418533  18.2545834
  33.9834477  26.1668533  18.3885834  35.2514477  26.8258533  16.7865834
  34.2654477  27.0238533  16.3675834  35.8344477  27.7468533  16.7935834
  35.9634477  25.7808533  15.9365834  35.9504477  24.8398533  16.4865834
  35.4054477  25.6648533  15.0075834  37.4014477  26.1638533  15.6205834
  37.8634477  27.2078533  16.1275834  38.0704477  25.4248533  14.8635834
  35.8094477  25.1818533  18.6445834  37.0404477  25.2028533  18.7265834
  35.0774477  24.0958533  18.8915834  34.0814477  24.1328533  18.7275834
  35.6394477  22.8798533  19.4965834  35.9714477  23.0918533  20.5125834
  34.5854477  21.7728533  19.5475834  34.0414477  21.7998533  18.6035834
  35.1164477  20.8248533  19.6335834  33.6084477  21.9098533  20.6965834
  34.1424477  21.7058533  21.6245834  33.2464477  22.9378533  20.7055834
  32.4344477  20.9628533  20.5715834  31.7434477  21.0078533  19.5345834
  32.2064477  20.1708533  21.5075834  36.9134477  22.3318533  18.8535834
  37.0434477  22.3298533  17.6265834  37.8664477  21.8788533  19.6935834
  38.9724477  20.9828533  19.3105834  39.7974477  21.5718533  18.9085834
  38.6264477  20.2788533  18.5535834  39.3264477  20.3008533  20.6135834
  40.3814477  20.0288533  20.6185834  38.7194477  19.4048533  20.7435834
  39.0204477  21.3048533  21.6645834  39.8584477  21.9988533  21.7295834
  38.8234477  20.8808533  22.6495834  37.7754477  22.0378533  21.1525834
  36.8384477  21.5938533  21.4875834  37.8194477  23.5118533  21.5695834
  38.4054477  24.3418533  20.8675834  37.1954477  23.8288533  22.6995834
  36.7364477  23.1078533  23.2375834  37.0764477  25.2118533  23.1515834
  37.4264477  25.9108533  22.3915834  35.6164477  25.5438533  23.5215834
  35.2304477  24.7558533  24.1675834  35.5284477  26.8808533  24.2445834
  35.9134477  27.6698533  23.5985834  34.4884477  27.0918533  24.4945834
  36.1204477  26.8398533  25.1585834  34.7494477  25.5398533  22.2595834
  35.3214477  26.0378533  21.4765834  34.5894477  24.4968533  21.9845834
  33.4154477  26.2268533  22.4225834  33.5744477  27.2698533  22.6975834
  32.8644477  26.1788533  21.4835834  32.8424477  25.7288533  23.2045834
  38.0034477  25.5298533  24.3265834  38.2424477  24.6818533  25.1905834
  38.5224477  26.7558533  24.3475834  38.3204477  27.4018533  23.5975834
  39.4024477  27.1968533  25.4215834  39.3044477  26.5288533  26.2775834
  40.8594477  27.1858533  24.9575834  40.9154477  27.8878533  24.1255834
  41.4564477  27.5608533  25.7895834  41.3944477  25.8408533  24.5195834
  41.0054477  24.6698533  25.1545834  40.3004477  24.7278533  25.9835834
  41.4994477  23.4378533  24.7485834  41.1824477  22.5258533  25.2545834
  42.3984477  23.3698533  23.7005834  42.8994477  22.1558533  23.2845834
  42.5584477  21.4158533  23.7915834  42.8014477  24.5218533  23.0585834
  43.5094477  24.4728533  22.2315834  42.3014477  25.7448533  23.4695834
  42.6174477  26.6598533  22.9675834  39.0684477  28.6068533  25.9105834
  38.4854477  29.4138533  25.1735834  39.4224477  28.8808533  27.1665834
  39.5924477  28.1208533  27.8105834  39.5784477  30.2458533  27.6525834
  39.3094477  30.9298533  26.8485834  38.7184477  30.5478533  28.8915834
  39.0904477  29.9608533  29.7315834  38.7804477  32.0228533  29.2395834
  38.4084477  32.6108533  28.4005834  38.1654477  32.2158533  30.1185834
  39.8124477  32.3038533  29.4495834  37.2684477  30.1548533  28.6425834
  37.0224477  30.4348533  27.6185834  37.1974477  29.0728533  28.7495834
  36.3004477  30.8188533  29.5915834  36.3704477  31.9008533  29.4845834
  35.2854477  30.4968533  29.3605834  36.5454477  30.5388533  30.6165834
  41.0584477  30.3678533  28.0005834  41.6824477  29.3928533  28.4275834
  41.6394477  31.5428533  27.7905834  41.1084477  32.3358533  27.4605834
  43.0724477  31.7148533  28.0165834  43.5004477  30.8768533  28.5655834
  43.8284477  31.8668533  26.6815834  43.5444477  32.8138533  26.2225834
  45.3404477  31.8438533  26.9065834  45.6254477  30.8968533  27.3655834
  45.8524477  31.9528533  25.9505834  45.6224477  32.6658533  27.5645834
  43.4114477  30.7688533  25.7135834  42.3394477  30.8368533  25.5265834
  43.9524477  30.8868533  24.7745834  43.6434477  29.7958533  26.1455834
  43.3134477  32.9518533  28.8705834  42.7694477  34.0168533  28.5805834
  44.1284477  32.8238533  29.9145834  44.6114477  31.9548533  30.0925834
  44.3644477  33.9468533  30.8225834  44.0764477  34.8838533  30.3465834
  43.5704477  33.7958533  32.1315834  43.5864477  34.7468533  32.6635834
  42.1364477  33.3988533  31.8515834  42.1194477  32.4468533  31.3205834
  41.5964477  33.2988533  32.7925834  41.6594477  34.1648533  31.2395834
  44.1964477  32.8058533  32.9575834  43.7014477  32.7108533  33.7745834
  45.8274477  34.0268533  31.1995834  46.6094477  33.1208533  30.8825834
  46.2054477  35.0958533  31.8955834  45.6124477  35.9058533  32.0085834
  47.5484477  35.1388533  32.4585834  48.2774477  35.0268533  31.6565834
  47.8154477  36.4608533  33.1815834  48.8914477  36.5118533  33.3475834
  47.5154477  37.2548533  32.4975834  47.0924477  36.6318533  34.5005834
  46.0244477  36.5968533  34.2845834  47.3574477  35.8018533  35.1565834
  47.4274477  37.9448533  35.1855834  48.5824477  38.1258533  35.6195834
  46.5204477  38.7888533  35.3075834  47.7434477  33.9558533  33.3985834
  46.7694477  33.3078533  33.8105834  48.9984477  33.6668533  33.7255834
  49.7524477  34.2458533  33.3845834  49.3314477  32.5218533  34.5635834
  48.4774477  31.8478533  34.6295834  50.5154477  31.7548533  33.9625834
  50.2464477  31.4828533  32.9425834  51.3574477  32.4468533  33.9435834
  50.9044477  30.5058533  34.7335834  50.1164477  29.3618533  34.6825834
  49.2104477  29.3778533  34.0765834  50.4614477  28.2168533  35.3825834
  49.8254477  27.3328533  35.3355834  51.6074477  28.1988533  36.1395834
  51.9434477  27.0508533  36.8345834  51.3094477  26.3398533  36.7135834
  52.4164477  29.3188533  36.2015834  53.3284477  29.3028533  36.7975834
  52.0634477  30.4658533  35.5015834  52.6984477  31.3508533  35.5495834
  49.6954477  32.9928533  35.9585834  50.6114477  33.8038533  36.1255834
  48.9894477  32.4828533  36.9645834  48.1824477  31.8998533  36.7925834
  49.3134477  32.8248533  38.3455834  49.9224477  33.7288533  38.3715834
  48.0354477  33.0748533  39.1415834  47.4914477  32.1318533  39.1985834
  48.3254477  33.3878533  40.1445834  47.1384477  34.1438533  38.5135834
  46.9004477  33.8308533  37.4965834  46.2214477  34.2018533  39.0995834
  47.9204477  35.7788533  38.4665834  48.1704477  36.0738533  40.2155834
  48.8104477  35.2938533  40.6285834  48.6454477  37.0448533  40.3565834
  47.2084477  36.0628533  40.7275834  50.1704477  31.7208533  38.9745834
  49.6874477  30.6178533  39.2385834  51.4414477  32.0238533  39.2245834
  51.7784477  32.9678533  39.1015834  52.4184477  30.9688533  39.5115834
  52.3314477  30.1748533  38.7705834  53.8464477  31.5288533  39.4645834
  54.5434477  30.6918533  39.5175834  53.9774477  32.0508533  38.5165834
  54.1004477  32.4218533  40.5335834  55.0004477  32.7498533  40.4695834
  52.2004477  30.1428533  40.7925834  52.7014477  29.0208533  40.8955834
  51.4714477  30.6698533  41.7705834  51.1274477  31.6188533  41.7325834
  51.3424477  29.9338533  43.0325834  51.9604477  29.0368533  42.9905834
  51.7904477  30.7828533  44.2315834  51.1234477  31.6428533  44.2885834
  51.6704477  30.1708533  45.1255834  53.2454477  31.2688533  44.1345834
  53.6694477  30.8738533  43.2115834  53.2324477  32.3578533  44.0915834
  54.0984477  30.8158533  45.3225834  54.5854477  31.6968533  45.7395834
  53.4304477  30.3838533  46.0675834  55.1664477  29.7778533  44.9265834
  55.3114477  29.1168533  45.7805834  54.7694477  29.2058533  44.0875834
  56.4794477  30.3868533  44.5385834  56.8474477  30.9168533  45.3155834
  57.1304477  29.6548533  44.2915834  56.3454477  30.9988533  43.7465834
  49.9884477  29.2668533  43.2795834  49.7894477  28.6408533  44.3215834
  49.0784477  29.3548533  42.3115834  49.2734477  29.8728533  41.4665834
  47.7774477  28.7078533  42.4415834  47.3144477  28.6678533  41.4555834
  47.9344477  27.6938533  42.8095834  46.8504477  29.4398533  43.3925834
  47.0664477  30.6208533  43.6965834  45.8114477  28.7568533  43.8685834
  45.6554477  27.7858533  43.6375834  44.8304477  29.4328533  44.7065834
  44.4914477  30.3308533  44.1895834  43.6104477  28.5578533  45.0205834
  42.8644477  29.1688533  45.5275834  43.1974477  28.1848533  44.0825834
  43.9674477  27.4598533  45.8505834  43.1884477  26.9288533  46.0315834
  45.4634477  29.8808533  45.9985834  46.4404477  29.3218533  46.4775834
  44.8864477  30.9318533  46.5415834  44.1414477  31.3898533  46.0365834
  45.2824477  31.4738533  47.8085834  46.3394477  31.7378533  47.8225834
  44.4584477  32.7458533  48.0115834  44.8654477  33.4798533  47.3165834
  43.4184477  32.5428533  47.7555834  44.5334477  33.2878533  49.4165834
  44.1254477  32.5598533  50.1175834  45.9914477  33.5558533  49.7565834
  46.4004477  34.2838533  49.0565834  46.0624477  33.9488533  50.7705834
  46.5584477  32.6268533  49.6865834  43.6964477  34.5378533  49.4925834
  42.6634477  34.2998533  49.2405834  43.7394477  34.9438533  50.5035834
  44.0804477  35.2758533  48.7885834  45.0234477  30.4428533  48.9205834
  45.7604477  30.3488533  49.9115834  43.9694477  29.6598533  48.7425834
  43.3954477  29.7598533  47.9175834  43.6144477  28.6308533  49.7095834
  43.4124477  29.0828533  50.6805834  42.3544477  27.8888533  49.2425834
  41.8994477  28.6398533  48.5975834  42.7014477  27.0528533  48.6365834
  41.3224477  27.3918533  50.2505834  40.6224477  28.1968533  50.4725834
  40.5574477  26.1938533  49.6735834  41.2574477  25.3878533  49.4515834
  39.8234477  25.8468533  50.4005834  40.0474477  26.4948533  48.7585834
  41.9664477  27.0438533  51.5575834  42.4564477  27.9268533  51.9685834
  41.2064477  26.6928533  52.2555834  42.7054477  26.2588533  51.4015834
  44.7594477  27.6358533  49.8195834  45.1964477  27.3058533  50.9345834
  45.2144477  27.1388533  48.6675834  44.7774477  27.3968533  47.7945834
  46.3214477  26.1668533  48.6345834  46.0764477  25.3198533  49.2755834
  46.5734477  25.6498533  47.2145834  46.7084477  26.5088533  46.5565834
  47.4904477  25.0618533  47.2365834  45.4334477  24.7898533  46.6955834
  44.4704477  24.5238533  47.4525834  45.4934477  24.3808533  45.5155834
  47.5894477  26.7778533  49.1845834  48.3294477  26.1338533  49.9165834
  47.8374477  28.0368533  48.8395834  47.2184477  28.5118533  48.1985834
  49.0104477  28.7568533  49.3325834  49.9234477  28.2428533  49.0305834
  49.0274477  30.1828533  48.7395834  48.8494477  30.1648533  47.6645834
  48.2524477  30.7748533  49.2255834  50.3274477  30.9178533  48.9495834
  51.4764477  30.5378533  48.2625834  51.4304477  29.6928533  47.5755834
  52.6864477  31.2288533  48.4465834  53.5814477  30.9188533  47.9075834
  52.7404477  32.3198533  49.3265834  53.6744477  32.8608533  49.4785834
  51.5894477  32.7108533  50.0095834  51.6184477  33.5578533  50.6945834
  50.3904477  32.0088533  49.8115834  49.4864477  32.3148533  50.3375834
  49.0164477  28.8268533  50.8475834  49.9984477  28.4588533  51.4855834
  47.9114477  29.2968533  51.4305834  47.1394477  29.6028533  50.8555834
  47.7904477  29.4308533  52.8855834  48.5724477  30.0918533  53.2585834
  46.4284477  30.0198533  53.2675834  45.7364477  29.3968533  52.7005834
  46.2774477  29.8518533  54.3335834  46.1734477  31.4888533  52.9425834
  46.4374477  31.6698533  51.9005834  44.6884477  31.8498533  53.1675834
  44.4244477  31.6698533  54.2095834  44.5294477  32.9018533  52.9295834
  44.0624477  31.2338533  52.5225834  47.1054477  32.3638533  53.7835834
  48.1414477  32.1148533  53.5555834  46.9254477  33.4138533  53.5535834
  46.9144477  32.1868533  54.8415834  47.9694477  28.1138533  53.6365834
  48.5364477  28.0978533  54.7345834  47.4764477  27.0238533  53.0575834
  46.9784477  27.0908533  52.1815834  47.6194477  25.6988533  53.6775834
  47.5024477  25.7778533  54.7585834  46.5484477  24.7518533  53.1385834
  46.6834477  24.7228533  52.0575834  46.7694477  23.7708533  53.5585834
  45.0864477  25.1338533  53.4645834  44.8864477  24.8748533  54.5045834
  44.9734477  26.2098533  53.3305834  44.1014477  24.4038533  52.5615834
  43.1014477  24.7788533  52.7785834  44.3574477  24.6318533  51.5265834
  44.1344477  22.8788533  52.7735834  43.4324477  22.4178533  52.0795834
  45.1424477  22.5218533  52.5615834  43.7624477  22.5158533  54.1705834
  42.8284477  22.8468533  54.3665834  43.7934477  21.5118533  54.2775834
  44.4134477  22.9428533  54.8135834  49.0154477  25.1058533  53.3905834
  49.4964477  24.2318533  54.1175834  49.6624477  25.5898533  52.3365834
  49.2474477  26.3388533  51.8005834  50.9614477  25.0778533  51.9185834
  50.8504477  23.9998533  51.8055834  51.1754477  25.5238533  50.9475834
  52.1234477  25.3598533  52.8595834  51.9534477  25.9208533  53.9415834
  53.3204477  24.9588533  52.4385834  53.4104477  24.5008533  51.5425834
  54.5224477  25.1268533  53.2555834  54.3924477  24.6188533  54.2115834
  55.7424477  24.5298533  52.5455834  55.7144477  23.4488533  52.6865834
  55.6564477  24.7598533  51.4835834  57.0684477  25.0798533  53.0805834
  56.8744477  26.1048533  53.3955834  57.3584477  24.4838533  53.9455834
  58.2014477  25.0688533  52.0495834  58.4374477  24.0158533  51.4155834
  58.8714477  26.1188533  51.8895834  54.8084477  26.5948533  53.5755834
  55.2934477  26.9168533  54.6535834  54.5194477  27.4898533  52.6355834
  54.1474477  27.2188533  51.7365834  54.7754477  28.9088533  52.8805834
  55.7784477  29.0278533  53.2905834  54.6664477  29.7418533  51.6085834
  53.6274477  30.0368533  51.4595834  55.5364477  30.9888533  51.7285834
  56.5754477  30.6948533  51.8775834  55.4534477  31.5798533  50.8165834
  55.2024477  31.5848533  52.5775834  55.0964477  28.9658533  50.4865834
  55.0264477  29.4928533  49.6875834  53.8104477  29.4888533  53.9125834
  54.2114477  30.2818533  54.7815834  52.5464477  29.0738533  53.8255834
  52.3094477  28.3438533  53.1695834  51.4834477  29.6358533  54.6465834
  51.1944477  30.5848533  54.1955834  50.6424477  28.9438533  54.6055834
  51.8564477  29.8718533  56.0945834  51.4944477  30.9018533  56.6785834
  52.5864477  28.9298533  56.6855834  52.8624477  28.0898533  56.1975834
  52.9224477  29.0498533  58.0975834  52.0204477  29.2838533  58.6635834
  53.5224477  27.7478533  58.6465834  53.7334477  27.9198533  59.7015834
  52.7524477  26.9828533  58.5505834  54.7884477  27.2818533  57.9465834
  54.5284477  26.9328533  56.9475834  55.4764477  28.1238533  57.8685834
  55.4604477  26.1428533  58.7275834  56.0804477  26.5658533  59.5175834
  54.6924477  25.5078533  59.1695834  56.3254477  25.3148533  57.7955834
  57.1364477  25.9378533  57.4175834  56.7424477  24.4748533  58.3515834
  55.5174477  24.8008533  56.6495834  55.1314477  25.5788533  56.1335834
  56.1074477  24.2528533  56.0405834  54.7664477  24.2228533  56.9995834
  53.8614477  30.2218533  58.3805834  53.9224477  30.7228533  59.5145834
  54.5984477  30.6688533  57.3745834  54.6614477  30.1958533  56.4845834
  55.5134477  31.7878533  57.6345834  55.8044477  31.7778533  58.6845834
  56.7774477  31.6918533  56.7755834  56.5374477  31.7818533  55.7165834
  57.4114477  32.5258533  57.0755834  57.5104477  30.3878533  57.0185834
  58.3154477  30.2138533  58.1365834  58.4334477  31.0428533  58.8345834
  58.9714477  28.9968533  58.3755834  59.6154477  28.8768533  59.2465834
  58.8044477  27.9508533  57.4925834  59.4404477  26.7378533  57.7165834
  59.9724477  26.7348533  58.5155834  57.9924477  28.1008533  56.3815834
  57.8604477  27.2748533  55.6825834  57.3454477  29.3088533  56.1585834
  56.6914477  29.4258533  55.2945834  54.8174477  33.1488533  57.5445834
  55.2324477  34.1048533  58.1915834  53.7414477  33.2218533  56.7715834
  53.4774477  32.4398533  56.1895834  52.9504477  34.4528533  56.6835834
  53.5394477  35.2428533  56.2175834  51.6974477  34.2118533  55.8365834
  51.2014477  33.3758533  56.3295834  51.0304477  35.0738533  55.8245834
  52.0474477  33.8218533  54.4065834  52.7924477  33.0258533  54.4305834
  50.8154477  33.3388533  53.6655834  50.0704477  34.1338533  53.6415834
  51.0874477  33.0658533  52.6465834  50.4014477  32.4698533  54.1765834
  52.7544477  34.9908533  53.6695834  53.6724477  35.2508533  54.1955834
  52.9934477  34.6868533  52.6505834  52.0934477  35.8578533  53.6435834
  52.5604477  34.9988533  58.0605834  52.0534477  34.2728533  58.9235834
  52.8264477  36.2818533  58.2705834  53.4214477  36.7968533  57.6375834
  52.3514477  36.9518533  59.4665834  51.7944477  36.2478533  60.0855834
  53.5324477  37.5018533  60.2875834  54.1514477  38.0868533  59.6075834
  53.1144477  38.1568533  61.0525834  54.3914477  36.4168533  60.9565834
  54.6774477  35.6718533  60.2135834  55.2874477  36.8728533  61.3775834
  53.5914477  35.7438533  62.0705834  53.4094477  36.4878533  62.8455834
  52.6404477  35.4198533  61.6485834  54.2534477  34.5878533  62.6765834
  54.7234477  34.7388533  63.5575834  54.2644477  33.3598533  62.1505834
  53.6644477  33.1108533  60.9885834  53.1944477  33.8568533  60.4965834
  53.6824477  32.1768533  60.6045834  54.8904477  32.3698533  62.7825834
  55.3564477  32.5498533  63.6605834  54.8964477  31.4428533  62.3815834
  51.3464477  38.0458533  59.0535834  51.1164477  38.2678533  57.8465834
  50.7594477  38.6998533  60.0525834  51.0124477  38.4668533  61.0025834
  49.6564477  39.6368533  59.8385834  48.8254477  39.1018533  59.3775834
  49.1644477  40.2748533  61.1475834  49.0994477  39.4408533  61.8455834
  49.9144477  40.9838533  61.4985834  47.7974477  40.9758533  61.0585834
  47.8444477  41.7098533  60.2535834  46.6504477  39.9818533  60.7815834
  46.6024477  39.2478533  61.5855834  45.7054477  40.5228533  60.7275834
  46.8314477  39.4718533  59.8355834  47.5264477  41.7448533  62.3365834
  48.3044477  42.4938533  62.4825834  46.5574477  42.2378533  62.2655834
  47.5224477  41.0558533  63.1815834  49.9524477  40.7028533  58.7985834
  49.0994477  40.9718533  57.9715834  51.1604477  41.3048533  58.8285834
  52.2074477  41.2538533  59.8675834  52.7404477  40.3048533  59.8015834
  51.7484477  41.3448533  60.8525834  53.0914477  42.4458533  59.5265834
  54.1214477  42.2478533  59.8225834  52.7324477  43.3388533  60.0375834
  52.9684477  42.5928533  58.0505834  53.6014477  41.8688533  57.5375834
  53.2024477  43.5958533  57.6945834  51.4864477  42.2738533  57.7835834
  50.8484477  43.1458533  57.9305834  51.2834477  41.7298533  56.3795834
  50.7274477  42.4558533  55.5505834  51.7164477  40.5028533  56.1015834
  52.2254477  39.9588533  56.7835834  51.5234477  39.9358533  54.7635834
  51.8084477  40.6758533  54.0155834  52.3744477  38.6728533  54.5545834
  52.1154477  37.9918533  55.3645834  52.0574477  38.2438533  53.6045834
  53.8984477  38.8908533  54.5355834  54.3644477  38.0018533  54.1095834
  54.1324477  39.7558533  53.9155834  54.4674477  39.1198533  55.9195834
  54.0254477  38.5078533  56.8835834  55.4414477  40.0138533  56.0285834
  55.8524477  40.2008533  56.9315834  55.7674477  40.5038533  55.2075834
  50.0424477  39.6118533  54.4905834  49.5544477  39.7528533  53.3655834
  49.3234477  39.1638533  55.5115834  49.7044477  39.0668533  56.4415834
  47.9444477  38.7398533  55.2795834  47.8904477  38.1218533  54.3835834
  47.4404477  37.9258533  56.4635834  47.5974477  38.5928533  57.3115834
  46.3764477  37.7118533  56.3625834  48.2014477  36.6218533  56.6935834
  49.2544477  36.7888533  56.4665834  48.0614477  36.1478533  58.1355834
  47.0084477  35.9798533  58.3625834  48.6144477  35.2178533  58.2685834
  48.4614477  36.9068533  58.8085834  47.7464477  35.5468533  55.6925834
  47.9364477  35.8918533  54.6765834  48.2994477  34.6248533  55.8715834
  46.6804477  35.3598533  55.8185834  47.0344477  39.9498533  55.0355834
  46.0974477  39.8848533  54.2435834  47.3034477  41.0438533  55.7245834
  48.0324477  41.0508533  56.4245834  46.4914477  42.2468533  55.5585834
  45.4284477  42.0078533  55.5245834  46.7324477  43.2538533  56.6925834
  47.8064477  43.3318533  56.8625834  46.1574477  44.6628533  56.3385834
  45.0834477  44.5858533  56.1685834  46.3454477  45.3498533  57.1635834
  46.6414477  45.0368533  55.4365834  46.1164477  42.7258533  57.9525834
  46.5724477  41.7688533  58.2075834  46.2824477  43.4348533  58.7635834
  45.0454477  42.5888533  57.8045834  46.7694477  42.8498533  54.2035834
  45.8504477  43.3518533  53.5405834  48.0194477  42.7558533  53.7595834
  48.7554477  42.3598533  54.3265834  48.3684477  43.2888533  52.4475834
  48.0114477  44.3158533  52.3705834  49.8714477  43.2788533  52.2215834
  50.2994477  43.9268533  52.9865834  50.2664477  42.2698533  52.3385834
  50.2344477  43.8058533  50.8555834  50.3064477  45.0448533  50.7115834
  50.3994477  42.9898533  49.9145834  47.6784477  42.5128533  51.3405834
  47.1364477  43.1038533  50.3955834  47.6984477  41.1868533  51.4615834
  48.2584477  40.7468533  52.1775834  46.9714477  40.3388533  50.5415834
  47.3484477  40.4918533  49.5305834  47.1364477  38.8548533  50.9075834
  46.8784477  38.7388533  51.9605834  46.4394477  38.2798533  50.2975834
  48.5554477  38.3468533  50.6735834  48.7784477  38.4408533  49.6105834
  49.2394477  38.9748533  51.2455834  48.7704477  36.6228533  51.1755834
  49.9874477  36.8368533  52.4555834  49.5844477  37.4818533  53.2365834
  50.2414477  35.8668533  52.8815834  50.8824477  37.2938533  52.0335834
  45.4944477  40.7038533  50.5105834  44.9224477  40.8048533  49.4325834
  44.8854477  40.8688533  51.6875834  45.4034477  40.7278533  52.5425834
  43.4664477  41.2158533  51.7845834  42.8664477  40.5118533  51.2085834
  43.0014477  41.1808533  53.2285834  43.5874477  41.8878533  53.8165834
  41.9474477  41.4538533  53.2775834  43.1354477  40.1758533  53.6295834
  43.2404477  42.6058533  51.1915834  42.1864477  42.8808533  50.6045834
  44.2354477  43.4848533  51.3425834  45.0444477  43.2568533  51.9025834
  44.1384477  44.8368533  50.7775834  43.1974477  45.2758533  51.1085834
  45.2924477  45.7148533  51.2785834  46.2414477  45.2928533  50.9465834
  45.1834477  46.7228533  50.8775834  45.2734477  45.7538533  52.3675834
  44.0954477  44.7908533  49.2455834  43.2934477  45.4698533  48.6005834
  44.9634477  43.9768533  48.6645834  45.6514477  43.4958533  49.2265834
  44.9634477  43.7468533  47.2305834  45.1804477  44.6738533  46.6995834
  46.0404477  42.7148533  46.8755834  45.9134477  41.8868533  47.5735834
  45.8164477  42.3748533  45.8645834  47.4794477  43.2138533  46.9365834
  47.5994477  43.9678533  46.1585834  47.7054477  43.6548533  47.9075834
  48.4614477  42.0878533  46.6755834  48.6204477  41.6528533  45.5325834
  49.0924477  41.5748533  47.7435834  49.7564477  40.8228533  47.6215834
  48.9004477  41.9428533  48.6645834  43.6114477  43.2198533  46.7475834
  43.0844477  43.6888533  45.7335834  43.0694477  42.2148533  47.4475834
  43.5324477  41.8348533  48.2605834  41.7954477  41.6178533  47.0305834
  41.8374477  41.2868533  45.9925834  41.4114477  40.4108533  47.9465834
  41.4494477  40.7388533  48.9855834  40.0064477  39.8898533  47.6275834
  39.9674477  39.5608533  46.5895834  39.7724477  39.0508533  48.2825834
  39.2784477  40.6868533  47.7835834  42.4344477  39.2738533  47.8215834
  42.2134477  38.7408533  46.8965834  43.4204477  39.7328533  47.7495834
  42.4154477  38.2818533  49.0025834  41.4304477  37.8218533  49.0755834
  43.1664477  37.5088533  48.8405834  42.6364477  38.8138533  49.9275834
  40.6974477  42.6908533  47.0905834  39.8114477  42.7508533  46.2295834
  40.7434477  43.5208533  48.1325834  41.4684477  43.4138533  48.8275834
  39.7574477  44.5888533  48.3155834  38.7434477  44.1888533  48.2835834
  39.9644477  45.2838533  49.6545834  40.9724477  45.6978533  49.6975834
  39.2374477  46.0878533  49.7635834  39.8324477  44.5638533  50.4625834
  39.8924477  45.5928533  47.2045834  38.9014477  46.2258533  46.8065834
  41.1244477  45.7648533  46.7255834  41.9034477  45.2648533  47.1285834
  41.3924477  46.7168533  45.6735834  40.9524477  47.6838533  45.9165834
  42.9044477  46.8928533  45.5205834  43.3024477  47.3768533  46.4125834
  43.3704477  45.9148533  45.3995834  43.1814477  47.6828533  44.3985834
  44.1314477  47.7888533  44.3085834  40.7274477  46.2378533  44.3775834
  40.0334477  46.9928533  43.6925834  40.9074477  44.9668533  44.0525834
  41.5004477  44.3618533  44.6015834  40.2494477  44.4118533  42.8895834
  40.5324477  44.9958533  42.0135834  40.5764477  43.3798533  42.7595834
  38.7314477  44.4368533  43.0325834  38.0194477  44.6998533  42.0585834
  38.2294477  44.1538533  44.2335834  38.8314477  43.8758533  44.9945834
  36.7844477  44.1608533  44.4595834  36.2904477  43.6438533  43.6365834
  36.4134477  43.4638533  45.7665834  37.0564477  43.8748533  46.5445834
  35.3754477  43.7168533  45.9835834  36.5694477  41.9488533  45.7265834
  37.6304477  41.7258533  45.6175834  36.2114477  41.5518533  46.6765834
  35.6554477  41.1698533  44.3735834  33.9734477  41.7538533  44.6685834
  33.9534477  42.8428533  44.6245834  33.3084477  41.3478533  43.9065834
  33.6414477  41.4238533  45.6525834  36.2314477  45.5798533  44.4445834
  35.0914477  45.8008533  44.0345834  37.0354477  46.5368533  44.8975834
  37.9144477  46.3118533  45.3405834  36.6384477  47.9408533  44.8195834
  35.7064477  48.0938533  45.3625834  37.7194477  48.8548533  45.4285834
  38.6564477  48.7188533  44.8885834  37.4024477  49.8948533  45.3505834
  37.8644477  48.5978533  46.4775834  36.3714477  48.3008533  43.3625834
  35.3994477  48.9938533  43.0555834  37.2374477  47.8268533  42.4715834
  38.0864477  47.3838533  42.7915834  37.0294477  47.9678533  41.0275834
  36.9274477  49.0228533  40.7725834  38.2164477  47.3878533  40.2475834
  39.0764477  48.0318533  40.4335834  38.4084477  46.3978533  40.6625834
  37.9834477  47.2728533  38.7475834  38.1294477  48.3748533  37.9095834
  38.4204477  49.3308533  38.3445834  37.9104477  48.2718533  36.5375834
  38.0194477  49.1468533  35.8965834  37.5544477  47.0618533  35.9935834
  37.3414477  46.9558533  34.6365834  37.4694477  47.7858533  34.1705834
  37.4094477  45.9468533  36.8035834  37.1254477  44.9868533  36.3735834
  37.6284477  46.0578533  38.1695834  37.5234477  45.1828533  38.8115834
  35.7334477  47.2778533  40.5935834  34.9234477  47.8528533  39.8615834
  35.5444477  46.0388533  41.0355834  36.2644477  45.5528533  41.5505834
  34.3074477  45.3308533  40.7445834  34.1804477  45.1888533  39.6715834
  34.2754477  43.9468533  41.4335834  34.5504477  44.0688533  42.4815834
  32.8874477  43.3298533  41.3425834  32.6114477  43.2068533  40.2955834
  32.8884477  42.3568533  41.8335834  32.1664477  43.9828533  41.8335834
  35.2964477  43.0298533  40.8015834  36.2914477  43.4618533  40.9115834
  35.2664477  42.0578533  41.2935834  35.0694477  42.9078533  39.7425834
  33.1264477  46.1818533  41.2015834  32.1544477  46.3648533  40.4685834
  33.2344477  46.7038533  42.4185834  34.0404477  46.4528533  42.9725834
  32.2284477  47.5738533  43.0165834  31.3014477  47.0278533  43.1905834
  32.7574477  48.0848533  44.3635834  33.0074477  47.1948533  44.9405834
  33.6694477  48.6368533  44.1335834  31.8184477  48.9708533  45.1775834
  31.6804477  49.9008533  44.6265834  30.8584477  48.4658533  45.2835834
  32.3864477  49.2788533  46.5615834  33.2834477  50.1458533  46.6645834
  31.9504477  48.6448533  47.5565834  31.8564477  48.7508533  42.1045834
  30.6934477  48.9378533  41.7465834  32.8384477  49.5498533  41.7185834
  33.7874477  49.4278533  42.0425834  32.5184477  50.7488533  40.9475834
  31.6054477  51.1958533  41.3395834  33.6444477  51.7858533  41.0265834
  33.2854477  52.6738533  40.5055834  33.7814477  52.0158533  42.0835834
  34.9474477  51.3568533  40.4385834  35.1914477  50.3538533  40.7875834
  34.8734477  51.3548533  39.3515834  36.0384477  52.3218533  40.8695834
  35.8524477  53.2948533  40.4145834  36.0184477  52.4188533  41.9545834
  37.3664477  51.8608533  40.4645834  37.5644477  51.8238533  39.4745834
  38.3174477  51.4858533  41.3175834  38.0924477  51.5238533  42.6245834
  37.1974477  51.8378533  42.9705834  38.8174477  51.2378533  43.2675834
  39.4964477  51.0778533  40.8675834  39.6724477  51.0518533  39.8735834
  40.2124477  50.7948533  41.5215834  32.0984477  50.4708533  39.5025834
  31.5914477  51.3608533  38.8305834  32.2954477  49.2328533  39.0445834
  32.7864477  48.5678533  39.6245834  31.8434477  48.7988533  37.7195834
  31.8494477  49.6438533  37.0315834  32.7694477  47.7138533  37.1685834
  32.8404477  46.9338533  37.9265834  32.2964477  47.3088533  36.2735834
  34.1554477  48.2098533  36.8255834  34.5414477  48.7758533  37.6735834
  34.7964477  47.3478533  36.6425834  34.1484477  49.2678533  35.3595834
  33.6694477  48.0478533  34.1215834  32.6954477  47.6318533  34.3785834
  33.6134477  48.5248533  33.1435834  34.4094477  47.2478533  34.0935834
  30.4244477  48.2528533  37.7795834  29.8674477  47.8378533  36.7635834
  29.8584477  48.2278533  38.9805834  30.4124477  48.4468533  39.7965834
  28.4904477  47.7628533  39.1785834  28.2224477  47.8438533  40.2325834
  27.5164477  48.6008533  38.3635834  27.7624477  48.5418533  37.3035834
  26.5154477  48.2018533  38.5265834  27.5324477  50.0498533  38.7825834
  27.4314477  50.3608533  39.9775834  27.6904477  50.9478533  37.8125834
  27.7084477  51.9318533  38.0375834  27.7914477  50.6408533  36.8555834
  28.3124477  46.2808533  38.9075834  27.2264477  45.8238533  38.5415834
  29.3854477  45.5268533  39.1155834  30.2934477  45.9358533  39.2865834
  29.2854477  44.0828533  39.0415834  28.3814477  43.7998533  38.5025834
  30.4914477  43.5098533  38.3055834  31.3514477  44.1378533  38.5365834
  30.6504477  42.5128533  38.7155834  30.3234477  43.4168533  36.7995834
  30.2324477  44.5568533  36.0155834  30.2804477  45.5338533  36.4975834
  30.0824477  44.4688533  34.6365834  30.0004477  45.3708533  34.0305834
  30.0364477  43.2298533  34.0365834  29.8924477  43.1188533  32.6685834
  29.8334477  43.9698533  32.2275834  30.1344477  42.0838533  34.7945834
  30.0984477  41.1048533  34.3175834  30.2784477  42.1798533  36.1645834
  30.3594477  41.2758533  36.7685834  29.1684477  43.4658533  40.4385834
  29.3974477  44.1388533  41.4665834  28.7744477  42.1958533  40.4685834
  28.3284477  41.7898533  39.6585834  28.8764477  41.3918533  41.6745834
  29.5464477  41.8278533  42.4155834  27.4904477  41.1578533  42.3345834
  27.1654477  42.0858533  42.8055834  26.4664477  40.7288533  41.3065834
  26.7904477  39.8008533  40.8355834  25.5044477  40.5718533  41.7945834
  26.3654477  41.5048533  40.5475834  27.5914477  40.1498533  43.4795834
  28.2794477  40.5268533  44.2365834  26.6064477  40.0048533  43.9245834
  27.9604477  39.1988533  43.0955834  29.5884477  40.0938533  41.2815834
  29.4094477  39.5868533  40.1745834  30.4424477  39.5908533  42.1615834
  30.5674477  40.0188533  43.0675834  31.2574477  38.4268533  41.8275834
  31.4594477  38.4078533  40.7565834  32.5874477  38.4858533  42.5735834
  33.1064477  39.4228533  42.3695834  32.3984477  38.4018533  43.6435834
  33.5364477  37.3848533  42.2185834  33.3764477  36.0878533  42.6615834
  34.3654477  35.3438533  42.1995834  34.4194477  34.2808533  42.4365834
  35.1624477  36.1128533  41.4765834  36.0004477  35.8158533  40.9965834
  34.6694477  37.3918533  41.4795834  35.1954477  38.1798533  40.9415834
  30.5054477  37.1568533  42.1795834  30.4274477  36.2228533  41.3655834
  29.9814477  37.1378533  43.4085834  30.2804477  37.8598533  44.0485834
  29.1024477  36.0758533  43.9165834  28.6434477  36.4028533  44.8495834
  27.9894477  35.7408533  42.9125834  28.4674477  35.3498533  42.0145834
  27.3684477  34.9648533  43.3605834  27.1224477  36.9348533  42.5465834
  26.4454477  37.1478533  43.3735834  27.7644477  37.7988533  42.3715834
  26.3134477  36.6418533  41.2915834  25.8904477  37.5678533  40.9025834
  26.9574477  36.1918533  40.5365834  25.2294477  35.7228533  41.5845834
  24.8674477  35.7238533  42.5275834  24.6884477  34.8938533  40.6995834
  25.1384477  34.8628533  39.4535834  25.8954477  35.4718533  39.1775834
  24.7224477  34.2298533  38.7855834  23.6974477  34.0938533  41.0695834
  23.3604477  34.1198533  42.0215834  23.2844477  33.4628533  40.3975834
  29.8114477  34.7978533  44.3425834  29.1644477  33.8508533  44.7865834
  31.1324477  34.7458533  44.2065834  31.6584477  35.4898533  43.7695834
  31.8494477  33.5388533  44.6175834  31.2994477  33.0378533  45.4145834
  31.9954477  32.5718533  43.4405834  31.0814477  32.6218533  42.8485834
  32.8384477  32.9088533  42.8365834  32.2334477  31.1318533  43.8865834
  31.9964477  30.8068533  45.0715834  32.6574477  30.3198533  43.0445834
  33.2154477  33.8958533  45.2225834  34.2064477  33.1838533  45.0265834
  33.2404477  34.9948533  45.9755834  32.3934477  35.5378533  46.0695834
  34.4514477  35.4838533  46.6265834  35.2964477  35.4408533  45.9395834
  34.2404477  36.9468533  47.0555834  33.9044477  37.4068533  46.1265834
  33.4164477  36.9288533  47.7695834  35.3944477  37.7538533  47.6335834
  35.7244477  37.2908533  48.5635834  36.5584477  37.7928533  46.6425834
  36.2294477  38.2568533  45.7125834  37.3784477  38.3728533  47.0665834
  36.8984477  36.7768533  46.4405834  34.9264477  39.1898533  47.9875834
  34.1244477  39.1398533  48.7245834  35.7634477  39.7538533  48.3995834
  34.5624477  39.6858533  47.0875834  34.8314477  34.6098533  47.8345834
  34.0114477  34.3848533  48.7395834  36.0784477  34.1348533  47.8325834
  36.6644477  34.3888533  47.0505834  36.6394477  33.2518533  48.8665834
  36.6584477  33.7808533  49.8195834  35.8074477  31.9768533  49.0315834
  36.3774477  31.2958533  49.6625834  34.8834477  32.2538533  49.5385834
  35.4794477  31.2968533  47.7275834  34.5054477  31.6438533  47.3815834
  36.2394477  31.5568533  46.9905834  35.4444477  29.7838533  47.9095834
  36.1404477  29.3368533  47.1995834  35.7654477  29.5528533  48.9255834
  34.1284477  29.2098533  47.6955834  33.4554477  29.7618533  47.1825834
  33.7614477  28.0068533  48.1335834  34.6154477  27.2508533  48.8225834
  35.5464477  27.5918533  49.0135834  34.3274477  26.3398533  49.1505834
  32.5344477  27.5558533  47.8825834  31.8864477  28.1278533  47.3605834
  32.2574477  26.6438533  48.2155834  38.0704477  32.9008533  48.4685834
  38.4744477  33.1298533  47.3265834  38.8404477  32.3498533  49.3955834
  38.4854477  32.1728533  50.3245834  40.2634477  32.1028533  49.1355834
  40.6744477  33.0728533  48.8555834  40.9664477  31.6228533  50.3915834
  40.5724477  30.6478533  50.6795834  42.0364477  31.5398533  50.2005834
  40.7964477  32.3358533  51.1985834  40.5214477  31.1498533  47.9695834
  41.5214477  31.2908533  47.2425834  39.6394477  30.1748533  47.7765834
  38.8734477  30.0138533  48.4145834  39.8194477  29.2418533  46.6525834
  40.8124477  28.8018533  46.7445834  38.7784477  28.1158533  46.6995834
  37.7794477  28.5398533  46.5995834  38.9604477  27.4178533  45.8825834
  38.8554477  27.5888533  47.6505834  39.7664477  29.9718533  45.3015834
  40.3264477  29.4958533  44.3155834  39.0834477  31.1178533  45.2555834
  38.5804477  31.4408533  46.0695834  38.9494477  31.8818533  44.0045834
  39.3564477  31.2958533  43.1805834  37.4744477  32.2098533  43.6945834
  37.0804477  32.8038533  44.5195834  37.4194477  32.7878533  42.7725834
  36.6104477  30.9568533  43.5385834  35.3824477  31.0028533  43.6765834
  37.2534477  29.8338533  43.2675834  36.7354477  28.9738533  43.1535834
  38.2594477  29.8408533  43.1755834  39.7834477  33.1708533  43.9605834
  39.4354477  34.1008533  43.2345834  40.8394477  33.2258533  44.7755834
  40.9344477  32.5198533  45.4915834  41.8884477  34.2348533  44.6545834
  41.5854477  34.9998533  43.9395834  42.2094477  34.8978533  46.0125834
  42.6044477  34.1348533  46.6835834  43.2374477  36.0278533  45.8605834
  42.8424477  36.7908533  45.1905834  43.4384477  36.4708533  46.8365834
  44.1624477  35.6248533  45.4475834  40.9364477  35.4538533  46.6555834
  40.2404477  34.6228533  46.7715834  41.2094477  35.8388533  47.6385834
  40.2964477  36.5248533  45.8685834  40.0234477  36.1408533  44.8855834
  39.4004477  36.8698533  46.3845834  40.9914477  37.3558533  45.7525834
  43.1324477  33.5058533  44.1775834  43.4994477  32.4598533  44.7445834
  43.7824477  34.0298533  43.1405834  43.3904477  34.8088533  42.6305834
  45.0224477  33.4308533  42.6475834  45.1574477  32.4478533  43.0975834
  44.9854477  33.2718533  41.1335834  44.7584477  34.2628533  40.7395834
  45.9564477  32.9468533  40.7595834  43.9154477  32.2908533  40.6845834
  42.9424477  32.6938533  40.9655834  43.9534477  32.0618533  39.1915834
  44.9264477  31.6588533  38.9095834  43.1724477  31.3548533  38.9115834
  43.7884477  33.0068533  38.6745834  44.0774477  30.9768533  41.4295834
  43.9794477  31.1518533  42.5005834  43.3074477  30.2768533  41.1045834
  45.0614477  30.5578533  41.2185834  46.2494477  34.2178533  43.0855834
  46.2084477  35.4468533  43.2365834  47.3504477  33.5048533  43.2925834
  47.3704477  32.5218533  43.0595834  48.5574477  34.1078533  43.8525834
  48.4464477  35.1758533  44.0385834  48.9534477  33.4178533  45.1685834
  49.1704477  32.3698533  44.9625834  50.2044477  34.0918533  45.7955834
  49.9884477  35.1398533  46.0015834  50.4634477  33.5848533  46.7255834
  51.0414477  34.0238533  45.1005834  47.7804477  33.4188533  46.1375834
  46.9414477  32.8838533  45.6935834  48.0744477  32.9278533  47.0655834
  47.4844477  34.4458533  46.3495834  49.7304477  33.9818533  42.8915834
  49.8964477  32.9468533  42.2385834  50.5414477  35.0308533  42.8135834
  50.3164477  35.8798533  43.3125834  51.7624477  34.9988533  42.0205834
  51.8644477  34.0258533  41.5405834  51.7274477  35.7768533  41.2585834
  52.9644477  35.2368533  42.9135834  52.8384477  35.2118533  44.1395834
  54.1294477  35.4798533  42.3145834  54.2174477  35.4108533  41.3105834
  55.3204477  35.8118533  43.0935834  55.4774477  35.0568533  43.8635834
  56.5614477  35.8608533  42.1955834  56.5414477  36.8208533  41.6805834
  57.4294477  35.8208533  42.8535834  56.6494477  34.7318533  41.1655834
  55.6864477  34.6878533  40.6565834  57.4284477  34.9868533  40.4475834
  56.9564477  33.3768533  41.7865834  57.5904477  33.3248533  42.8645834
  56.5714477  32.3548533  41.1835834  55.1354477  37.1578533  43.7985834
  54.2034477  37.9028533  43.4915834  56.0144477  37.4518533  44.7545834
  56.6794477  36.7498533  45.0475834  55.9864477  38.7248533  45.4755834
  56.7204477  38.7128533  46.2815834  56.3234477  39.8798533  44.5225834
  57.2404477  39.6388533  43.9845834  55.5034477  39.9838533  43.8125834
  56.5154477  41.2068533  45.2405834  56.0124477  42.2418533  44.7985834
  57.2344477  41.1818533  46.3565834  57.3914477  42.0358533  46.8715834
  57.6204477  40.3088533  46.6855834  54.6454477  38.9398533  46.1835834
  54.2644477  40.0708533  46.4945834  53.9414477  37.8318533  46.4255834
  54.2664477  36.9678533  46.0165834  52.6704477  37.8198533  47.1555834
  52.2554477  36.8118533  47.1445834  52.8614477  38.2538533  48.6115834
  53.3924477  39.2038533  48.5555834  51.8904477  38.4088533  49.0825834
  53.6774477  37.2618533  49.4405834  54.7284477  37.3338533  49.1595834
  53.5254477  37.5828533  50.9175834  52.4754477  37.5108533  51.1995834
  54.1084477  36.8738533  51.5055834  53.8834477  38.5938533  51.1085834
  53.2444477  35.8318533  49.1345834  53.4004477  35.6228533  48.0765834
  53.8344477  35.1368533  49.7325834  52.1884477  35.7118533  49.3755834
  51.5774477  38.6538533  46.4935834  50.7344477  39.2478533  47.1755834
  51.5784477  38.6758533  45.1675834  52.3304477  38.2518533  44.6435834
  50.5234477  39.3478533  44.4345834  50.2484477  40.2988533  44.8895834
  50.9484477  39.6018533  42.9945834  51.3564477  38.6818533  42.5765834
  49.7564477  40.0528533  42.1615834  49.3484477  40.9738533  42.5785834
  50.0764477  40.2308533  41.1345834  48.9894477  39.2778533  42.1735834
  52.0864477  40.6508533  42.9605834  52.9404477  40.2798533  43.5275834
  52.3864477  40.8288533  41.9275834  51.7354477  41.5838533  43.4015834
  49.2384477  38.5158533  44.4615834  49.2384477  37.3358533  44.1215834
  48.1394477  39.1328533  44.8685834  48.1744477  40.0868533  45.1995834
  46.8564477  38.4318533  44.9085834  46.9914477  37.3848533  44.6355834
  46.2744477  38.4968533  46.3205834  46.3244477  39.5078533  46.7255834
  45.2424477  38.1478533  46.3425834  47.1854477  37.4438533  47.4825834
  46.4424477  37.7358533  48.5465834  45.8844477  39.0108533  43.9055834
  45.7454477  40.2418533  43.8075834  45.2074477  38.1318533  43.1645834
  45.3814477  37.1418533  43.2645834  44.2334477  38.5668533  42.1645834
  44.0104477  39.6248533  42.3015834  44.7904477  38.3618533  40.7465834
  45.5954477  37.6338533  40.8415834  43.9774477  37.9288533  40.1635834
  45.3174477  39.6168533  40.0365834  45.0514477  39.5418533  38.9825834
  44.8214477  40.4828533  40.4745834  46.8244477  39.7758533  40.1685834
  47.0304477  40.7928533  40.5035834  47.1764477  39.0678533  40.9195834
  47.5494477  39.5178533  38.8455834  48.4994477  39.0478533  39.1005834
  46.9334477  38.8128533  38.2875834  47.8014477  40.7258533  38.0095834
  48.3724477  41.3798533  38.5255834  48.2814477  40.4548533  37.1625834
  46.9214477  41.1608533  37.7735834  42.9024477  37.8188533  42.2945834
  42.8724477  36.5938533  42.4885834  41.8014477  38.5518533  42.1685834
  41.8634477  39.5578533  42.1035834  40.4844477  37.9398533  42.1365834
  40.3454477  37.2438533  42.9645834  39.3834477  38.9998533  42.1985834
  39.4404477  39.6268533  41.3085834  38.0184477  38.3348533  42.2635834
  37.9604477  37.7088533  43.1535834  37.2424477  39.0998533  42.3075834
  37.8714477  37.7188533  41.3765834  39.5984477  39.9238533  43.4115834
  40.5654477  40.4198533  43.3245834  38.8074477  40.6728533  43.4425834
  39.5754477  39.3328533  44.3275834  40.3524477  37.1338533  40.8435834
  40.7754477  37.5928533  39.7685834  39.7904477  35.9288533  40.9405834
  39.4784477  35.5778533  41.8345834  39.6664477  35.0588533  39.7735834
  39.7694477  35.6628533  38.8715834  40.7694477  33.9978533  39.7805834
  40.6734477  33.3798533  40.6735834  40.6774477  33.3708533  38.8935834
  41.7444477  34.4858533  39.7805834  38.2944477  34.3998533  39.7255834
  37.4414477  34.6718533  40.5725834  38.0934477  33.5358533  38.7295834
  38.7644477  33.4948533  37.9755834  36.9044477  32.6828533  38.6485834
  36.9314477  32.0928533  37.7325834  36.8574477  31.7298533  39.8425834
  37.8874477  31.5398533  40.1455834  36.3244477  32.2208533  40.6575834
  36.1794477  30.4198533  39.5145834  34.9384477  30.4228533  39.3215834
  36.8894477  29.3878533  39.4665834  35.6014477  33.4598533  38.5775834
  34.7864477  33.4008533  39.4975834  35.3964477  34.1688533  37.4735834
  36.0944477  34.1818533  36.7435834  34.2224477  35.0138533  37.3205834
  33.8784477  35.3538533  38.2975834  34.5644477  36.2418533  36.4665834
  34.9384477  35.9068533  35.4985834  33.6984477  36.8868533  36.3175834
  35.6344477  37.0948533  37.0655834  36.9714477  36.7418533  36.9285834
  37.2314477  35.8458533  36.3645834  37.9684477  37.5148533  37.4995834
  39.0154477  37.2368533  37.3795834  37.6314477  38.6448533  38.2255834
  38.4124477  39.2538533  38.6805834  36.2994477  39.0018533  38.3735834
  36.0334477  39.8918533  38.9435834  35.3094477  38.2278533  37.7975834
  34.2624477  38.5058533  37.9165834  33.0184477  34.2678533  36.7365834
  32.0714477  34.8998533  36.2575834  33.0624477  32.9348533  36.7955834
  33.8934477  32.4898533  37.1585834  31.9614477  32.0878533  36.3575834
  32.0504477  31.9928533  35.2755834  32.1124477  31.1128533  36.8205834
  30.5634477  32.5878533  36.6985834  29.6964477  32.6458533  35.8205834
  30.3404477  32.9528533  37.9615834  31.0764477  32.8558533  38.6465834
  29.0294477  33.4248533  38.4125834  28.2584477  33.1038533  37.7115834
  28.7034477  32.8518533  39.7955834  29.5144477  33.2488533  40.4065834
  27.7554477  33.2708533  40.1335834  28.6634477  31.3238533  39.9295834
  29.5594477  30.9158533  39.4615834  28.6054477  30.8788533  41.3995834
  27.7094477  31.2858533  41.8675834  28.5784477  29.7898533  41.4495834
  29.4874477  31.2438533  41.9255834  27.4954477  30.7308533  39.1385834
  27.6034477  30.9848533  38.0845834  27.4924477  29.6468533  39.2525834
  26.5574477  31.1378533  39.5155834  28.9074477  34.9568533  38.4475834
  27.8514477  35.4958533  38.7975834  29.9844477  35.6588533  38.0985834
  30.8464477  35.1928533  37.8555834  29.9744477  37.1208533  38.1395834
  29.6654477  37.4248533  39.1395834  31.3714477  37.6888533  37.8645834
  31.6904477  37.4008533  36.8635834  31.3434477  38.7758533  37.9375834
  32.0754477  37.2948533  38.5975834  28.9524477  37.6918533  37.1575834
  28.7104477  37.1118533  36.0925834  28.3624477  38.8288533  37.5165834
  28.6434477  39.3128533  38.3575834  27.2614477  39.3748533  36.7435834
  27.4594477  39.2518533  35.6785834  25.9514477  38.6428533  37.0885834
  25.3204477  38.6688533  36.2005834  26.2074477  37.6098533  37.3215834
  25.2004477  39.2568533  38.2625834  25.9224477  39.4228533  39.0625834
  24.7994477  40.2148533  37.9305834  24.0604477  38.3798533  38.7795834
  23.3664477  38.1658533  37.9665834  24.4654477  37.4448533  39.1675834
  23.3284477  39.0578533  39.8565834  23.6124477  40.0018533  40.0745834
  22.3284477  38.5178533  40.5535834  21.9244477  37.2768533  40.2975834
  22.3774477  36.7408533  39.5715834  21.1664477  36.8758533  40.8305834
  21.7274477  39.2168533  41.5125834  22.0304477  40.1588533  41.7115834
  20.9704477  38.8018533  42.0365834  27.0914477  40.8808533  36.9725834
  27.2874477  41.3928533  38.0835834  26.7294477  41.5858533  35.9055834
  26.7954477  41.1818533  34.9825834  26.2414477  42.9498533  36.0275834
  27.0064477  43.5878533  36.4695834  25.8964477  43.4908533  34.6425834
  26.7474477  43.1458533  34.0555834  25.0014477  42.9498533  34.3365834
  25.6914477  44.9848533  34.4105834  24.7934477  45.2888533  34.9485834
  26.8814477  45.8188533  34.8915834  27.7794477  45.5148533  34.3535834
  26.6854477  46.8748533  34.7035834  27.0274477  45.6618533  35.9605834
  25.4424477  45.2148533  32.9285834  24.5534477  44.6658533  32.6195834
  25.2934477  46.2788533  32.7455834  26.3014477  44.8648533  32.3565834
  25.0004477  42.9318533  36.9225834  24.1064477  42.0998533  36.7405834
  24.9634477  43.8168533  37.9155834  25.7564477  44.4148533  38.0995834
  23.7914477  43.9358533  38.7795834  23.5144477  42.9448533  39.1385834
  24.0484477  44.8688533  39.9885834  24.6874477  45.6918533  39.6705834
  22.7404477  45.4218533  40.5225834  22.1004477  44.5988533  40.8415834
  22.9414477  46.0748533  41.3715834  22.2384477  45.9888533  39.7385834
  24.7674477  44.1258533  41.1155834  24.1064477  43.3298533  41.4575834
  25.6734477  43.6898533  40.6945834  25.1364477  45.0258533  42.2985834
  24.2304477  45.4618533  42.7205834  25.6434477  44.4348533  43.0615834
  25.7984477  45.8218533  41.9575834  22.6044477  44.4848533  37.9865834
  22.6554477  45.6068533  37.4655834  21.5774477  43.6178533  37.8695834
  21.7744477  42.7188533  38.2855834  20.3014477  43.8148533  37.2545834
  19.6904477  44.4138533  37.9295834  20.3674477  44.5278533  35.8855834
  20.8224477  45.5028533  36.0595834  21.0214477  43.9308533  35.2495834
  19.0174477  44.7118533  35.1965834  19.0464477  45.5718533  34.5285834
  18.7824477  43.8148533  34.6235834  17.9494477  44.9298533  36.2555834
  17.8784477  46.0518533  36.8255834  17.1754477  43.9628533  36.4955834
  19.7604477  42.4308533  37.0865834  20.0184477  41.7558533  36.0865834
  18.9654477  41.9388533  38.0585834  18.6484477  42.4288533  38.8825834
  18.6224477  40.5528533  37.9175834  19.4144477  40.0738533  37.3425834
  18.4484477  39.7898533  39.2505834  19.1484477  40.1768533  39.9905834
  17.4284477  39.9198533  39.6125834  18.7224477  38.2998533  39.0185834
  18.4614477  37.7998533  37.8855834  19.2034477  37.6368533  39.9775834
  17.3834477  40.4358533  37.1065834  16.3344477  40.9898533  37.4245834
  17.5484477  39.7028533  35.9895834  18.4734477  39.3228533  35.8495834
  16.5204477  39.3478533  35.0575834  15.5544477  39.6038533  35.4915834
  16.6594477  40.0688533  33.7145834  17.5194477  39.8018533  33.1005834
  15.7444477  39.9238533  33.1395834  16.7684477  41.5308533  34.0905834
  15.7924477  42.2008533  34.4205834  18.0364477  42.0098533  34.1275834
  18.2014477  42.9768533  34.3695834  18.8104477  41.3978533  33.9125834
  16.8034477  37.9008533  34.8285834  17.7114477  37.3698533  35.4695834
  16.0604477  37.1838533  33.9555834  15.2564477  37.5028533  33.4335834
  16.4334477  35.7988533  33.8535834  16.7244477  35.4658533  34.8495834
  15.3354477  34.8598533  33.3225834  14.9424477  35.3008533  32.4065834
  15.8064477  33.9038533  33.0925834  14.1864477  34.6378533  34.3165834
  13.7254477  35.5878533  34.5875834  13.4434477  33.9958533  33.8435834
  14.7234477  33.9538533  35.5765834  15.6764477  33.1368533  35.4635834
  14.2034477  34.2598533  36.6815834  17.6544477  35.6848533  32.9965834
  17.6924477  36.1298533  31.8525834  18.7104477  35.0848533  33.5715834
  18.6664477  34.8268533  34.5465834  19.9604477  34.9498533  32.8895834
  19.8034477  35.1848533  31.8365834  21.0804477  35.8888533  33.4505834
  21.9574477  35.7158533  32.8265834  20.7354477  36.9138533  33.3155834
  21.4394477  35.6678533  34.8905834  20.6074477  36.0798533  35.9055834
  19.6764477  36.5858533  35.6525834  20.9334477  35.8628533  37.2145834
  20.2714477  36.1828533  38.0195834  22.1064477  35.2388533  37.5065834
  22.4074477  35.0198533  38.8485834  21.7284477  35.3458533  39.4435834
  22.9684477  34.8338533  36.5215834  23.9104477  34.3438533  36.7675834
  22.6314477  35.0528533  35.2095834  23.3074477  34.7398533  34.4135834
  20.2814477  33.4818533  32.8965834  19.5344477  32.7048533  33.4885834
  21.3604477  33.0608533  32.1885834  21.9284477  33.7758533  31.7565834
  21.7244477  31.6708533  31.9765834  20.9264477  31.1548533  31.4425834
  22.9904477  31.5588533  31.1725834  23.2704477  30.5098533  31.0805834
  22.7654477  32.1538533  29.7725834  22.4854477  33.2038533  29.8635834
  23.6834477  32.0718533  29.1905834  21.9674477  31.6078533  29.2695834
  24.0324477  32.2588533  31.8315834  24.8404477  32.1868533  31.3185834
  21.9234477  30.8558533  33.2375834  21.1814477  29.9008533  33.4525834
  22.8924477  31.2078533  34.1195834  23.4434477  32.0348533  33.9405834
  23.1304477  30.4788533  35.3445834  23.0184477  29.4018533  35.2215834
  24.5184477  30.7638533  35.9485834  24.6414477  31.8378533  36.0865834
  24.6064477  30.2618533  36.9125834  25.2914477  30.3938533  35.2745834
  22.1164477  30.9638533  36.3315834  21.7714477  32.1398533  36.3365834
  21.5594477  30.1118533  37.1985834  21.6724477  29.1128533  37.2985834
  20.6294477  30.7798533  38.0595834  20.7664477  31.8478533  37.8925834
  19.1334477  30.4398533  37.8765834  19.0914477  29.3638533  37.7105834
  18.6554477  30.6788533  38.8265834  18.3994477  31.1618533  36.7395834
  18.6874477  30.6508533  35.8205834  17.3354477  31.0098533  36.9215834
  18.6844477  32.6628533  36.6005834  19.7074477  32.8148533  36.2565834
  17.9914477  33.1058533  35.8855834  18.5154477  33.3478533  37.9185834
  18.8284477  32.9418533  38.7885834  17.9134477  34.5678533  37.9505834
  17.2604477  35.0008533  36.8315834  17.2344477  34.4168533  36.0075834
  16.8064477  35.9028533  36.8325834  17.9644477  35.3418533  39.0775834
  18.4534477  35.0058533  39.8955834  17.5134477  36.2448533  39.0865834
  20.9674477  30.5008533  39.4715834  21.8794477  29.7288533  39.7655834
  20.2364477  31.1968533  40.3685834  19.5474477  31.8358533  39.9995834
  20.3514477  31.0698533  41.7865834  21.3774477  30.7768533  42.0105834
  20.0224477  32.3498533  42.5765834  19.0194477  32.6568533  42.2815834
  20.0234477  32.0818533  43.6325834  20.9964477  33.5018533  42.3435834
  21.2694477  33.8708533  43.3325834  21.8924477  33.1708533  41.8195834
  20.3664477  34.6408533  41.5575834  20.3344477  34.6268533  40.3275834
  19.9124477  35.6988533  42.2865834  19.4844477  36.4848533  41.8175834
  20.0064477  35.6928533  43.2925834  19.3694477  30.0278533  42.2085834
  18.2844477  29.9168533  41.6375834  19.7594477  29.2338533  43.2225834
  20.6584477  29.4168533  43.6455834  18.9754477  28.1468533  43.7345834
  18.0134477  28.4918533  44.1135834  18.8134477  27.3788533  42.9775834
  19.7624477  27.5578533  44.8665834  20.5134477  28.2568533  45.5415834
  19.6304477  26.2368533  45.0885834  19.0424477  25.7078533  44.4595834
  20.2654477  25.5408533  46.1775834  19.9284477  25.9978533  47.1085834
  19.9064477  24.0458533  46.2055834  20.2454477  23.5728533  45.2835834
  20.3934477  23.5708533  47.0575834  18.8264477  23.9328533  46.2955834
  21.7704477  25.6428533  46.1015834  22.4334477  25.7148533  47.1365834
  22.3404477  25.6528533  44.8755834  21.7354477  25.7028533  44.0685834
  23.7724477  25.6058533  44.6595834  24.1944477  24.8278533  45.2955834
  24.1484477  25.3028533  43.1925834  25.2274477  25.4188533  43.0915834
  23.8734477  24.2698533  42.9815834  23.4384477  26.2348533  42.1975834
  22.4664477  25.7828533  41.9995834  23.2984477  27.1828533  42.7175834
  24.1644477  26.4828533  40.8725834  24.9104477  25.7008533  40.7325834
  23.4364477  26.4378533  40.0625834  24.8504477  27.8488533  40.8655834
  25.7544477  27.8108533  41.4725834  25.1104477  28.1258533  39.8445834
  23.9224477  28.8518533  41.4265834  23.6814477  28.5948533  42.3735834
  24.3664477  29.7588533  41.4265834  23.0844477  28.8868533  40.8635834
  24.5074477  26.8878533  44.9775834  25.0654477  27.5118533  44.0765834
  24.5664477  27.2788533  46.2725834  23.9464477  26.7858533  46.8985834
  25.3634477  28.3818533  46.8115834  26.2834477  28.4848533  46.2355834
  24.5844477  29.7068533  46.7355834  23.5114477  29.5208533  46.6955834
  24.8144477  30.3168533  47.6095834  24.9244477  30.5428533  45.5235834
  26.1344477  31.2238533  45.4615834  26.8244477  31.1488533  46.3015834
  26.4724477  31.9958533  44.3445834  27.4254477  32.5238533  44.3135834
  25.5944477  32.0888533  43.2775834  25.8504477  32.6868533  42.4035834
  24.3744477  31.4098533  43.3265834  23.6764477  31.4828533  42.4925834
  24.0484477  30.6378533  44.4445834  23.1004477  30.1018533  44.4785834
  25.8204477  28.0878533  48.2415834  24.9864477  27.9488533  49.1455834
  27.1514477  28.0028533  48.4485834  28.1824477  28.4708533  47.5025834
  27.8984477  29.4468533  47.1085834  28.2714477  27.7598533  46.6815834
  29.4384477  28.5298533  48.3575834  29.5384477  29.5148533  48.8125834
  30.3184477  28.3208533  47.7485834  29.2404477  27.4698533  49.3895834
  29.8254477  27.7378533  50.2695834  29.5014477  26.4598533  49.0745834
  27.7454477  27.5468533  49.7145834  27.2954477  26.5908533  49.9815834
  27.5114477  28.5458533  50.8335834  28.1144477  29.6298533  50.8385834
  26.6544477  28.1658533  51.7755834  26.2844477  27.2258533  51.7555834
  26.1764477  29.0738533  52.8095834  25.7284477  29.9468533  52.3365834
  25.1224477  28.3778533  53.7165834  24.2894477  28.0388533  53.1005834
  25.7504477  27.1758533  54.4325834  26.5834477  27.5138533  55.0485834
  25.0024477  26.6968533  55.0645834  26.1124477  26.4608533  53.6935834
  24.5624477  29.3258533  54.7845834  23.7224477  28.8128533  55.2525834
  25.3524477  29.4738533  55.5205834  24.0984477  30.6838533  54.2545834
  23.3074477  30.5368533  53.5185834  23.7184477  31.2858533  55.0795834
  24.9384477  31.1978533  53.7865834  27.3074477  29.6198533  53.6775834
  27.1524477  30.6608533  54.3195834  28.4304477  28.9078533  53.7315834
  28.5064477  28.0138533  53.2685834  29.5294477  29.3358533  54.5975834
  29.1374477  29.5778533  55.5855834  30.5884477  28.2318533  54.7465834
  30.8184477  27.8608533  53.7475834  31.4794477  28.6878533  55.1775834
  30.1264477  27.0518533  55.6425834  29.9824477  27.4398533  56.6505834
  29.1734477  26.6938533  55.2515834  31.1264477  25.8978533  55.6795834
  31.2304477  25.5018533  54.6695834  32.0864477  26.2878533  56.0175834
  30.6634477  24.7618533  56.6355834  29.6634477  25.0238533  56.9795834
  30.6154477  23.8478533  56.0435834  31.5664477  24.5418533  57.8305834
  31.6104477  25.3888533  58.3795834  31.1974477  23.7918533  58.3975834
  32.4934477  24.2988533  57.5115834  30.1164477  30.6708533  54.1255834
  30.5014477  31.5028533  54.9385834  30.1554477  30.8888533  52.8155834
  29.8164477  30.1868533  52.1735834  30.7524477  32.1108533  52.2605834
  31.3274477  32.6308533  53.0265834  31.6934477  31.7448533  51.1045834
  31.2464477  30.9628533  50.4905834  31.8694477  32.6298533  50.4925834
  33.0744477  31.2278533  51.5375834  34.2284477  31.9688533  51.6735834
  34.1594477  33.0338533  51.4545834  35.2674477  31.1568533  52.0775834
  36.2184477  31.4568533  52.2375834  34.7994477  29.8698533  52.2225834
  35.4734477  28.7048533  52.6105834  36.5354477  28.7688533  52.8465834
  34.7414477  27.5418533  52.6685834  35.2304477  26.6148533  52.9695834
  33.3824477  27.5178533  52.3505834  32.8144477  26.5888533  52.3965834
  32.7134477  28.6718533  51.9675834  31.6514477  28.5978533  51.7335834
  33.4304477  29.8788533  51.8955834  29.7094477  33.1438533  51.7815834
  30.0394477  34.2968533  51.4515834  28.4474477  32.7268533  51.7315834
  28.1994477  31.8228533  52.1085834  27.4034477  33.5198533  51.0945834
  27.8304477  34.2728533  50.4315834  26.4974477  32.6068533  50.2755834
  25.9684477  31.9428533  50.9595834  25.4774477  33.4128533  49.4505834
  26.0064477  34.0768533  48.7665834  24.8494477  32.7288533  48.8795834
  24.8534477  34.0048533  50.1205834  27.3184477  31.8218533  49.4015834
  26.7634477  31.2398533  48.8775834  26.5954477  34.2898533  52.1365834
  26.2364477  33.7248533  53.1815834  26.3354477  35.5768533  51.8875834
  26.7604477  36.0678533  51.1135834  25.4694477  36.3338533  52.8005834
  25.8694477  36.2388533  53.8105834  25.4234477  37.8128533  52.4325834
  25.0164477  37.9248533  51.4275834  24.7894477  38.3448533  53.1415834
  26.4314477  38.2268533  52.4645834  24.0544477  35.7288533  52.8115834
  23.5754477  35.2428533  51.7885834  23.3864477  35.7638533  53.9745834
  23.9184477  36.3238533  55.2325834  24.0024477  37.4068533  55.1385834
  24.9024477  35.8988533  55.4285834  22.8944477  35.9088533  56.2665834
  22.7824477  36.7088533  56.9985834  23.2404477  35.0048533  56.7675834
  21.6324477  35.6598533  55.5425834  21.0834477  36.5968533  55.4495834
  21.0004477  34.9158533  56.0275834  22.0544477  35.1628533  54.1545834
  22.1704477  34.0808533  54.0855834  21.0324477  35.6318533  53.1195834
  20.3674477  34.7998533  52.4885834  20.8844477  36.9418533  52.9605834
  21.4314477  37.6068533  53.4875834  19.8494477  37.4528533  52.0615834
  18.8784477  37.0738533  52.3805834  19.8024477  38.9878533  52.0635834
  18.8304477  39.2648533  51.6545834  19.8574477  39.2948533  53.1085834
  20.9194477  39.6928533  51.2605834  21.1134477  39.0878533  50.3745834
  20.5464477  40.6708533  50.9575834  22.2214477  39.8658533  52.0575834
  22.3174477  39.3528533  53.1905834  23.1564477  40.5268533  51.5495834
  20.0634477  36.9228533  50.6525834  19.1424477  36.8848533  49.8475834
  21.2894477  36.5098533  50.3555834  22.0174477  36.5378533  51.0555834
  21.6364477  36.0518533  49.0145834  21.0064477  36.5468533  48.2755834
  23.0944477  36.3728533  48.7045834  23.7384477  35.8768533  49.4305834
  23.3394477  36.0208533  47.7025834  23.2494477  37.4508533  48.7585834
  21.3844477  34.5648533  48.8995834  20.7884477  34.1008533  47.9255834
  21.8284477  33.8188533  49.9065834  22.3854477  34.2378533  50.6375834
  21.6104477  32.3768533  49.9435834  21.9594477  31.9738533  48.9925834
  22.4194477  31.7488533  51.0625834  22.0754477  32.1358533  52.0215834
  22.2914477  30.6668533  51.0405834  23.4734477  31.9928533  50.9305834
  20.1204477  32.0088533  50.0765834  19.6424477  31.0788533  49.4285834
  19.3864477  32.7358533  50.9075834  19.8064477  33.4788533  51.4465834
  17.9644477  32.4398533  51.1205834  17.7984477  31.3628533  51.0925834
  17.5204477  32.9678533  52.4845834  17.7924477  34.0208533  52.4185834
  16.4354477  32.8758533  52.5235834  18.1274477  32.3648533  53.7475834
  19.1894477  32.1828533  53.5805834  17.9554477  33.3108533  54.9155834
  16.8934477  33.4928533  55.0825834  18.3934477  32.8678533  55.8105834
  18.4554477  34.2548533  54.6965834  17.5244477  31.0048533  54.0665834
  17.7084477  30.3218533  53.2375834  17.9814477  30.6078533  54.9725834
  16.4504477  31.1098533  54.2185834  17.0304477  33.0038533  50.0305834
  16.1374477  32.2988533  49.5305834  17.2464477  34.2688533  49.6665834
  18.0854477  34.7358533  49.9805834  16.3014477  35.0218533  48.8345834
  15.4134477  34.4248533  48.6265834  15.8774477  36.2808533  49.5835834
  16.7364477  36.9508533  49.6115834  15.0814477  36.7368533  48.9945834
  15.3854477  36.0348533  50.9885834  14.4934477  35.0138533  51.2585834
  14.1454477  34.3908533  50.4345834  14.0444477  34.7758533  52.5395834
  13.3404477  33.9668533  52.7315834  14.4844477  35.5638533  53.5745834
  14.0244477  35.3178533  54.8515834  13.4094477  34.5818533  54.8935834
  15.3814477  36.5898533  53.3375834  15.7384477  37.2168533  54.1555834
  15.8254477  36.8168533  52.0485834  16.5334477  37.6218533  51.8495834
  16.8794477  35.4388533  47.4825834  16.2544477  36.1998533  46.7365834
  18.0824477  34.9558533  47.1775834  18.5604477  34.3528533  47.8315834
  18.7404477  35.2688533  45.9215834  19.6324477  34.6458533  45.8635834
  18.0524477  34.9918533  45.1225834  19.1424477  36.7268533  45.7465834
  19.3314477  37.1808533  44.6065834  19.2774477  37.4698533  46.8485834
  19.0574477  37.1018533  47.7625834  19.6474477  38.8788533  46.7405834
  19.3164477  39.2768533  45.7815834  18.9914477  39.6848533  47.8545834
  19.4924477  39.4408533  48.7915834  19.1284477  40.7438533  47.6345834
  17.5144477  39.3838533  47.9795834  17.0494477  39.5898533  47.0155834
  17.4084477  38.3248533  48.2135834  16.8354477  40.2088533  49.0545834
  16.9234477  39.7138533  50.0215834  17.2874477  41.1988533  49.1115834
  15.4194477  40.3588533  48.7335834  15.1384477  40.1318533  47.7905834
  14.4904477  40.7698533  49.5895834  14.8144477  41.0768533  50.8385834
  15.7744477  40.9978533  51.1415834  14.0994477  41.3878533  51.4805834
  13.2314477  40.8708533  49.1875834  12.9874477  40.6348533  48.2365834
  12.5214477  41.1828533  49.8345834  21.1694477  39.1058533  46.7235834
  21.7814477  39.4568533  47.7505834  21.7614477  38.9298533  45.5465834
  21.2114477  38.6198533  44.7585834  23.1954477  39.1448533  45.3505834
  23.7294477  38.9458533  46.2795834  23.7334477  38.2068533  44.2665834
  23.1084477  38.2788533  43.3765834  24.7594477  38.4708533  44.0115834
  23.7484477  36.7518533  44.6665834  24.8494477  36.2058533  45.3115834
  25.7044477  36.8448533  45.5315834  24.8724477  34.8648533  45.6765834
  25.7474477  34.4528533  46.1795834  23.7874477  34.0548533  45.4025834
  23.7974477  33.0038533  45.6915834  22.6854477  34.5838533  44.7575834
  21.8294477  33.9458533  44.5365834  22.6664477  35.9258533  44.3905834
  21.7964477  36.3388533  43.8805834  23.4834477  40.5838533  44.9505834
  22.9764477  41.0768533  43.9405834  24.3134477  41.2538533  45.7425834
  24.6824477  40.8138533  46.5735834  24.7024477  42.6228533  45.4575834
  24.5694477  42.8358533  44.3965834  23.8454477  43.6068533  46.2675834
  24.1614477  44.6258533  46.0445834  22.3494477  43.4368533  45.8965834
  22.0324477  42.4178533  46.1195834  21.7494477  44.1388533  46.4755834
  22.2134477  43.6348533  44.8335834  24.0254477  43.3508533  47.6685834
  23.4904477  43.9648533  48.1775834  26.1744477  42.7688533  45.8265834
  26.8024477  41.8028533  46.2935834  26.7394477  43.9488533  45.6065834
  26.2564477  44.6948533  45.1275834  28.1304477  44.1548533  45.9785834
  28.7764477  43.3648533  45.5945834  28.6634477  45.5228533  45.5175834
  28.5054477  45.6208533  44.4435834  27.9344477  46.6588533  46.2475834
  28.0924477  46.5618533  47.3215834  28.3244477  47.6188533  45.9085834
  26.8674477  46.6048533  46.0315834  30.1924477  45.5868533  45.7025834
  30.5014477  46.6218533  45.5535834  30.4154477  45.2858533  46.7265834
  30.9544477  44.6798533  44.7245834  30.7324477  44.9808533  43.7005834
  32.0254477  44.7688533  44.9045834  30.6464477  43.6448533  44.8735834
  28.2534477  43.9698533  47.4955834  29.3134477  43.5778533  48.0005834
  27.1454477  44.1858533  48.2085834  26.3114477  44.5308533  47.7555834
  27.1304477  44.0268533  49.6615834  28.0474477  44.4348533  50.0855834
  25.9394477  44.7638533  50.2735834  25.0394477  44.3378533  49.8305834
  25.9514477  44.5548533  51.3435834  25.9504477  46.2838533  50.0485834
  25.8344477  46.4768533  48.9825834  25.1104477  46.7198533  50.5895834
  27.2504477  46.9088533  50.5395834  27.5054477  46.4708533  51.5045834
  28.0384477  46.6848533  49.8205834  27.1114477  48.4268533  50.6885834
  26.7514477  48.8428533  49.7475834  26.3914477  48.6398533  51.4785834
  28.4244477  49.0428533  51.0345834  29.0924477  48.8458533  50.3025834
  28.3134477  50.0418533  51.1285834  28.7574477  48.6578533  51.9065834
  27.1354477  42.5588533  50.1225834  27.5574477  42.2618533  51.2505834
  26.6564477  41.6348533  49.2925834  26.1124477  41.8428533  48.4675834
  26.8204477  40.2348533  49.6795834  26.7134477  40.1608533  50.7615834
  25.7964477  39.3058533  49.0215834  26.0994477  38.2758533  49.2075834
  24.8254477  39.4868533  49.4815834  25.7054477  39.5248533  47.6295834
  25.0564477  38.9268533  47.2535834  28.2614477  39.7958533  49.4045834
  28.8014477  38.9458533  50.1135834  28.8884477  40.3798533  48.3915834
  28.4004477  40.9178533  47.6895834  30.3264477  40.1948533  48.2445834
  30.5534477  39.1308533  48.1735834  30.8384477  40.8898533  46.9785834
  30.3234477  41.8478533  46.9075834  31.9094477  41.0608533  47.0855834
  30.5814477  40.0888533  45.7305834  30.2894477  38.8728533  45.8355834
  30.6874477  40.6688533  44.6295834  31.0674477  40.7248533  49.4825834
  32.0234477  40.1048533  49.9475834  30.6444477  41.8688533  50.0255834
  29.9284477  42.4388533  49.5995834  31.3264477  42.3848533  51.2135834
  32.3934477  42.4798533  51.0115834  30.7864477  43.7608533  51.6745834
  29.7014477  43.7038533  51.7625834  31.3874477  44.1478533  53.0265834
  32.4724477  44.2048533  52.9395834  30.9964477  45.1178533  53.3345834
  31.1224477  43.3968533  53.7705834  31.1164477  44.8398533  50.6385834
  30.6574477  44.5808533  49.6845834  30.7294477  45.8008533  50.9785834
  32.1974477  44.9068533  50.5145834  31.2764477  41.3538533  52.3445834
  32.2634477  41.1358533  53.0525834  30.1314477  40.6958533  52.4925834
  29.3364477  40.9358533  51.9175834  29.9774477  39.6348533  53.4715834
  30.1104477  40.0358533  54.4765834  28.5714477  39.0118533  53.3725834
  27.8294477  39.7808533  53.5865834  28.3784477  38.5858533  52.3885834
  28.3484477  37.9088533  54.3705834  28.8754477  36.6408533  54.3405834
  29.5454477  36.4008533  53.5155834  28.4134477  35.9138533  55.4215834
  28.6464477  34.9528533  55.6255834  27.5794477  36.7078533  56.1695834
  26.8814477  36.4258533  57.3495834  26.9824477  35.4348533  57.7925834
  26.1084477  37.4248533  57.8765834  25.5504477  37.2428533  58.7955834
  26.0154477  38.6768533  57.2645834  25.3944477  39.4618533  57.6955834
  26.7004477  38.9588533  56.1055834  26.6104477  39.9598533  55.6845834
  27.4994477  37.9608533  55.5355834  31.0124477  38.5388533  53.2475834
  31.6744477  38.0918533  54.1905834  31.1154477  38.0818533  52.0045834
  30.5544477  38.4808533  51.2655834  32.0064477  36.9948533  51.6765834
  31.7494477  36.1168533  52.2695834  31.8934477  36.6328533  50.1885834
  32.2314477  37.4858533  49.6005834  32.5404477  35.7778533  49.9925834
  30.5584477  36.3088533  49.8275834  30.5244477  36.0878533  48.8935834
  33.4304477  37.4318533  52.0135834  34.2344477  36.6298533  52.5175834
  33.7254477  38.7038533  51.7455834  33.0434477  39.2908533  51.2865834
  35.0504477  39.2648533  52.0215834  35.8024477  38.6668533  51.5075834
  35.1734477  40.7258533  51.5455834  34.9414477  40.7498533  50.4805834
  34.5084477  41.4068533  52.0765834  36.5734477  41.2808533  51.6965834
  37.5464477  41.0078533  50.7455834  37.2834477  40.4158533  49.8685834
  38.8754477  41.4918533  50.9055834  39.6274477  41.2718533  50.1485834
  39.2144477  42.2428533  52.0225834  40.2284477  42.6238533  52.1455834
  38.2464477  42.5088533  52.9915834  38.5004477  43.0938533  53.8755834
  36.9324477  42.0168533  52.8235834  36.1764477  42.2108533  53.5845834
  35.3654477  39.1488533  53.5155834  36.4864477  38.8048533  53.8975834
  34.3714477  39.4248533  54.3565834  33.5094477  39.8268533  54.0165834
  34.4934477  39.1578533  55.7825834  35.2794477  39.7998533  56.1805834
  33.5444477  39.4098533  56.2565834  34.8354477  37.6968533  56.0965834
  35.6604477  37.4448533  56.9775834  34.2234477  36.7368533  55.4025834
  33.5004477  36.9468533  54.7285834  34.5754477  35.3348533  55.6285834
  34.5574477  35.0928533  56.6915834  33.6324477  34.3858533  54.8705834
  33.6924477  34.6058533  53.8045834  34.0274477  32.9198533  55.1145834
  33.9674477  32.6998533  56.1805834  33.3484477  32.2648533  54.5695834
  35.0474477  32.7548533  54.7665834  32.1754477  34.6378533  55.2795834
  31.9534477  35.6828533  55.0635834  31.5484477  33.9978533  54.6585834
  31.8914477  34.3498533  56.7625834  32.5174477  34.9898533  57.3835834
  30.8414477  34.5508533  56.9775834  32.1124477  33.3048533  56.9795834
  36.0274477  35.0648533  55.1745834  36.8014477  34.3708533  55.8605834
  36.3784477  35.6068533  54.0125834  35.6764477  36.0758533  53.4575834
  37.7184477  35.4628533  53.4545834  37.9634477  34.4088533  53.3205834
  37.7734477  36.1578533  52.0865834  37.0254477  35.5758533  51.5485834
  37.3774477  37.1508533  52.2975834  39.0234477  36.2828533  51.2365834
  39.6384477  37.0898533  51.6345834  39.8094477  35.0038533  51.2455834
  39.1954477  34.1968533  50.8465834  40.7004477  35.1198533  50.6285834
  40.1044477  34.7648533  52.2675834  38.6294477  36.6658533  49.7925834
  38.0994477  37.6178533  49.8005834  39.5274477  36.7558533  49.1815834
  37.9824477  35.8938533  49.3755834  38.7934477  35.9848533  54.4125834
  39.8914477  35.4148533  54.4965834  38.4754477  37.0378533  55.1615834
  37.6424477  37.5768533  54.9725834  39.3814477  37.5058533  56.2075834
  40.3624477  37.6998533  55.7735834  38.8744477  38.7858533  56.8555834
  37.8164477  38.5918533  57.0335834  39.3894477  38.8918533  57.8105834
  39.0264477  40.0658533  56.0535834  38.5964477  39.9258533  55.0615834
  38.2964477  41.2128533  56.7705834  38.7264477  41.3538533  57.7625834
  38.4064477  42.1308533  56.1935834  37.2384477  40.9678533  56.8645834
  40.5094477  40.3898533  55.8715834  40.9984477  39.5728533  55.3415834
  40.6134477  41.3088533  55.2955834  40.9764477  40.5188533  56.8485834
  39.6794477  36.4728533  57.2865834  40.7774477  36.4848533  57.8745834
  38.7274477  35.5768533  57.5495834  37.8314477  35.6028533  57.0835834
  38.9584477  34.5348533  58.5475834  39.5284477  34.9578533  59.3755834
  37.6604477  33.9198533  59.1065834  37.9104477  33.2378533  59.9195834
  36.7474477  35.0038533  59.6225834  36.4964477  35.6858533  58.8095834
  35.8344477  34.5548533  60.0145834  37.2504477  35.5558533  60.4165834
  36.9964477  33.1798533  58.0715834  36.1884477  32.7968533  58.4205834
  39.7774477  33.4228533  57.9385834  40.4734477  32.7228533  58.6555834
  39.6954477  33.2458533  56.6205834  39.0054477  33.7328533  56.0665834
  40.5594477  32.2828533  55.9555834  40.5074477  31.3238533  56.4715834
  40.1244477  32.0798533  54.5015834  40.0214477  33.0678533  54.0525834
  40.9214477  31.5328533  53.9975834  38.8194477  31.3198533  54.3555834
  38.9374477  30.3338533  54.8055834  38.0504477  31.8748533  54.8925834
  38.4114477  31.1668533  52.9075834  37.8864477  32.1528533  52.3245834
  38.6234477  30.0698533  52.3465834  42.0214477  32.7418533  56.0375834
  42.9364477  31.9458533  56.2945834  42.2364477  34.0328533  55.8245834
  41.4764477  34.6518533  55.5815834  43.5764477  34.5848533  55.8985834
  44.2524477  34.0138533  55.2615834  43.5684477  36.0378533  55.4235834
  42.7164477  36.4798533  55.9395834  44.4884477  36.4978533  55.7835834
  43.4334477  36.2778533  53.9195834  42.6694477  35.6108533  53.5205834
  43.0334477  37.7408533  53.6415834  43.7974477  38.4088533  54.0395834
  42.9414477  37.8948533  52.5665834  42.0784477  37.9548533  54.1215834
  44.7524477  35.9438533  53.2065834  45.0044477  34.8978533  53.3785834
  44.6424477  36.1188533  52.1365834  45.5484477  36.5778533  53.5975834
  44.1264477  34.5118533  57.3195834  45.2684477  34.0788533  57.5365834
  43.3364477  34.9458533  58.2975834  42.4624477  35.4098533  58.0935834
  43.8264477  34.9678533  59.6695834  44.8764477  35.2598533  59.6585834
  43.0344477  35.9768533  60.5755834  43.3244477  35.8228533  61.6155834
  43.3434477  37.4138533  60.1695834  43.0534477  37.5688533  59.1305834
  42.7864477  38.0998533  60.8075834  44.4114477  37.6018533  60.2805834
  41.6224477  35.7738533  60.4495834  41.1574477  36.3998533  61.0105834
  43.9734477  33.5648533  60.3135834  44.6524477  33.4118533  61.3375834
  43.3754477  32.5418533  59.7055834  42.7644477  32.6938533  58.9165834
  43.5274477  31.1768533  60.2125834  44.0004477  31.2008533  61.1945834
  42.1664477  30.4648533  60.3385834  42.3184477  29.4728533  60.7645834
  41.2374477  31.2698533  61.2425834  41.0844477  32.2618533  60.8165834
  40.2784477  30.7588533  61.3255834  41.6844477  31.3648533  62.2315834
  41.5724477  30.3288533  59.0425834  40.7254477  29.8848533  59.1235834
  44.4664477  30.3408533  59.3435834  44.6494477  29.1418533  59.5705834
  45.0754477  30.9758533  58.3455834  44.9264477  31.9618533  58.1875834
  45.9214477  30.2528533  57.4195834  46.3114477  30.9448533  56.6725834
  47.1064477  29.5878533  58.1385834  46.6964477  28.7678533  58.7275834
  47.7594477  29.1868533  57.3635834  47.9084477  30.5178533  59.0495834
  47.2384477  30.8978533  59.8215834  48.7034477  29.9348533  59.5145834
  48.5174477  31.6888533  58.2835834  49.0854477  31.2888533  57.4435834
  47.7054477  32.3118533  57.9085834  49.4494477  32.5408533  59.1775834
  49.8794477  33.3098533  58.5355834  48.8154477  33.0098533  59.9305834
  50.5524477  31.7808533  59.8555834  51.1404477  31.3468533  59.1585834
  51.1054477  32.4158533  60.4135834  50.1544477  31.0688533  60.4505834
  45.1114477  29.1998533  56.6595834  45.6114477  28.1128533  56.3585834
  43.8584477  29.5138533  56.3465834  43.3794477  30.2978533  56.7655834
  43.1424477  28.7098533  55.3705834  42.6894477  29.4168533  54.6755834
  43.9014477  28.1258533  54.8505834  42.0704477  27.7738533  55.8895834
  41.4804477  26.9968533  55.1305834  41.8044477  27.8398533  57.1815834
  42.3104477  28.4708533  57.7865834  40.8114477  26.9578533  57.7795834
  41.0184477  25.9178533  57.5285834  40.8704477  27.1148533  59.2935834
  41.0034477  28.1728533  59.5195834  39.9224477  26.7718533  59.7075834
  41.9904477  26.3318533  59.8995834  42.9304477  26.5988533  59.4165834
  42.0564477  26.5478533  60.9655834  41.7214477  24.8468533  59.6985834
  40.6664477  24.6498533  59.5095834  42.3194477  24.4348533  58.8855834
  42.0994477  24.1958533  60.9245834  42.8694477  24.6128533  61.4285834
  41.5214477  23.1308533  61.4325834  40.4924477  22.5298533  60.8235834
  40.1424477  22.8958533  59.9495834  40.0704477  21.7128533  61.2405834
  42.0044477  22.6648533  62.5635834  42.7884477  23.1258533  63.0025834
  41.5894477  21.8478533  62.9875834  39.3804477  27.2118533  57.2825834
  38.9514477  28.3618533  57.1405834  38.6424477  26.1398533  57.0245834
  39.0704477  25.2258533  56.9975834  37.2054477  26.2488533  56.7085834
  37.0414477  26.8458533  55.8115834  36.5624477  24.8618533  56.5025834
  36.6394477  24.2978533  57.4315834  35.0614477  24.9988533  56.1005834
  34.9834477  25.5628533  55.1705834  34.6304477  24.0078533  55.9605834
  34.5204477  25.5228533  56.8885834  37.3314477  24.0758533  55.4365834
  38.3654477  23.9458533  55.7555834  36.8684477  23.0988533  55.3005834
  37.3084477  24.6228533  54.4945834  36.4664477  27.0128533  57.8135834
  36.7004477  26.7678533  59.0105834  35.6044477  27.9738533  57.4215834
  35.3604477  28.2938533  56.0045834  34.7344477  27.5218533  55.5565834
  36.3094477  28.3458533  55.4715834  34.6694477  29.6268533  56.0765834
  33.9864477  29.7188533  55.2315834  35.4174477  30.4178533  56.0255834
  33.9534477  29.6678533  57.3475834  32.9624477  29.2378533  57.2025834
  33.8554477  30.6768533  57.7475834  34.7664477  28.7938533  58.3205834
  35.4364477  29.3478533  58.9785834  33.7834477  27.9628533  59.1705834
  33.4834477  26.8238533  58.8075834  33.2844477  28.5298533  60.2735834
  33.6034477  29.4488533  60.5465834  32.3214477  27.8368533  61.1455834
  32.2834477  28.3368533  62.1135834  30.9054477  27.8438533  60.5305834
  30.8784477  27.1818533  59.6645834  30.2374477  27.4598533  61.3015834
  30.4564477  29.2328533  60.1195834  29.8514477  30.0778533  61.0275834
  29.6874477  29.7258533  62.0455834  29.4554477  31.3518533  60.6645834
  28.9594477  31.9988533  61.3875834  29.6914477  31.8048533  59.3775834
  29.3124477  33.0868533  59.0155834  28.8964477  33.5718533  59.7325834
  30.2984477  30.9878533  58.4585834  30.4794477  31.3368533  57.4415834
  30.6834477  29.7078533  58.8315834  31.1734477  29.0538533  58.1095834
  32.7364477  26.4038533  61.4315834  31.9724477  25.4688533  61.1685834
  33.9384477  26.2298533  62.0005834  34.7384477  27.3028533  62.6145834
  34.1984477  27.7138533  63.4675834  34.9104477  28.0898533  61.8805834
  35.9944477  26.6138533  63.0125834  36.3584477  27.0588533  63.9385834
  36.7354477  26.7558533  62.2255834  35.6814477  25.1838533  63.1885834
  35.3654477  25.0568533  64.2235834  36.5024477  24.4998533  62.9735834
  34.5064477  24.9018533  62.2475834  34.7814477  24.4548533  61.2925834
  33.4984477  24.0008533  62.9595834  32.9384477  24.4038533  63.9855834
  33.2694477  22.8128533  62.4125834  33.6364477  22.5858533  61.4995834
  32.4904477  21.8118533  63.1065834  32.7364477  20.8368533  62.6855834
  32.7694477  21.8338533  64.1595834  30.9984477  22.0368533  62.9875834
  30.2164477  21.3368533  63.6395834  30.6034477  23.0188533  62.1755834
  31.2834477  23.6288533  61.7445834  29.1954477  23.2358533  61.8775834
  28.5804477  22.6718533  62.5785834  28.8414477  24.7128533  61.9985834
  29.4434477  25.2338533  61.2545834  27.7864477  24.7978533  61.7365834
  29.0744477  25.3348533  63.3635834  28.6154477  24.7248533  64.1415834
  30.1424477  25.4288533  63.5595834  28.3204477  26.9808533  63.3755834
  28.6514477  27.4708533  65.0705834  29.7274477  27.4778533  65.2435834
  28.2494477  28.4688533  65.2455834  28.1784477  26.7638533  65.7525834
  28.8904477  22.7888533  60.4575834  29.6054477  23.1368533  59.5185834
  27.8214477  22.0258533  60.2905834  27.3124477  21.6598533  61.0825834
  27.3554477  21.6868533  58.9545834  28.1894477  21.4948533  58.2795834
  26.4694477  20.4488533  58.9975834  26.0564477  20.2668533  58.0055834
  27.2894477  19.2388533  59.4365834  27.7024477  19.4198533  60.4285834
  26.6494477  18.3568533  59.4655834  28.1024477  19.0748533  58.7295834
  25.3074477  20.6888533  59.9505834  24.7234477  21.5418533  59.6045834
  24.6734477  19.8028533  59.9815834  25.6924477  20.8948533  60.9495834
  26.5574477  22.8558533  58.3755834  26.1784477  23.7788533  59.1095834
  26.3064477  22.8138533  57.0695834  26.6614477  22.0458533  56.5175834
  25.5994477  23.8948533  56.3815834  26.2184477  24.7918533  56.3655834
  25.2884477  23.4918533  54.9435834  25.0494477  22.4288533  54.9385834
  24.4304477  24.0588533  54.5825834  26.4524477  23.7298533  54.0095834
  27.4374477  24.3838533  54.3675834  26.3364477  23.2168533  52.7925834
  27.0814477  23.3418533  52.1215834  25.5034477  22.7028533  52.5415834
  24.3114477  24.3708533  57.0485834  24.0634477  25.5698533  57.1455834
  23.4824477  23.4338533  57.4975834  23.6964477  22.4518533  57.3985834
  22.2104477  23.8068533  58.1175834  21.6684477  24.4758533  57.4495834
  21.3364477  22.5808533  58.3965834  21.5274477  21.8478533  57.6125834
  21.6364477  22.1678533  59.3595834  19.8514477  22.9148533  58.4275834
  19.3414477  22.2708533  59.1435834  19.7114477  23.9578533  58.7135834
  19.2764477  22.6898533  57.0515834  20.0914477  22.3998533  56.3885834
  18.5544477  21.8758533  57.1165834  18.6134477  23.8578533  56.4915834
  18.4024477  24.6238533  57.1155834  18.2664477  23.9678533  55.2095834
  18.5364477  22.9828533  54.3505834  19.0064477  22.1498533  54.6745834
  18.2694477  23.0748533  53.3805834  17.6554477  25.0658533  54.7855834
  17.4564477  25.8128533  55.4355834  17.3924477  25.1508533  53.8145834
  22.4354477  24.5568533  59.4225834  21.7344477  25.5278533  59.7135834
  23.3984477  24.0978533  60.2215834  23.9154477  23.2588533  59.9995834
  23.6634477  24.7558533  61.4895834  22.7234477  24.8888533  62.0255834
  24.6184477  23.9388533  62.3685834  24.7014477  22.9408533  61.9375834
  25.5934477  24.4248533  62.3485834  24.1334477  23.8308533  63.8125834
  23.3224477  24.5508533  63.9185834  23.7484477  22.8238533  63.9755834
  25.2154477  24.1318533  64.8395834  26.2754477  23.4638533  64.8175834
  24.9894477  25.0248533  65.6895834  24.2064477  26.1628533  61.2355834
  23.9464477  27.0768533  62.0085834  24.9404477  26.3338533  60.1395834
  25.1544477  25.5538533  59.5345834  25.4814477  27.6548533  59.7905834
  26.0454477  28.0778533  60.6215834  26.3994477  27.5768533  58.5645834
  25.8264477  27.1998533  57.7165834  26.9624477  28.9588533  58.2255834
  27.5354477  29.3358533  59.0725834  27.6114477  28.8838533  57.3525834
  26.1414477  29.6428533  58.0095834  27.5384477  26.5928533  58.8215834
  27.1264477  25.6038533  59.0225834  28.1834477  26.5458533  57.9445834
  28.1194477  26.9258533  59.6815834  24.3504477  28.6268533  59.5005834
  24.2634477  29.7068533  60.0885834  23.4714477  28.2328533  58.5885834
  23.6074477  27.3678533  58.0855834  22.3274477  29.0638533  58.2365834
  22.6664477  30.0378533  57.8825834  21.5254477  28.3978533  57.1305834
  22.2144477  28.3138533  56.2905834  21.2034477  27.4028533  57.4365834
  20.3064477  29.2208533  56.7095834  19.6504477  29.3608533  57.5685834
  20.7594477  30.5818533  56.1885834  21.4154477  30.4428533  55.3295834
  19.8884477  31.1648533  55.8895834  21.2984477  31.1108533  56.9745834
  19.4754477  28.4778533  55.6675834  19.1304477  27.5318533  56.0845834
  18.6154477  29.0858533  55.3865834  20.0864477  28.2838533  54.7855834
  21.4164477  29.3658533  59.4325834  21.0034477  30.5118533  59.6325834
  21.0884477  28.3478533  60.2235834  21.3574477  27.3998533  60.0015834
  20.2444477  28.5738533  61.4055834  19.3184477  29.0608533  61.1005834
  19.8964477  27.2498533  62.1055834  20.8384477  26.7458533  62.3225834
  19.3824477  27.4768533  63.0395834  19.0154477  26.3378533  61.2475834
  18.4914477  26.7968533  60.2075834  18.8294477  25.1588533  61.6215834
  20.8964477  29.5408533  62.3985834  20.2444477  30.4348533  62.9345834
  22.1894477  29.3498533  62.6475834  22.6934477  28.6178533  62.1675834
  22.9044477  30.1468533  63.6375834  22.3234477  30.2178533  64.5575834
  24.2414477  29.4838533  63.9545834  24.7204477  29.2268533  63.0095834
  24.8564477  30.2088533  64.4875834  24.0874477  28.2308533  64.8005834
  23.4054477  27.5468533  64.2955834  25.0544477  27.7468533  64.9335834
  23.5234477  28.5588533  66.1565834  22.4704477  28.0468533  66.5505834
  24.2134477  29.4328533  66.8805834  23.8854477  29.6938533  67.7995834
  25.0634477  29.8328533  66.5085834  23.1394477  31.5748533  63.1655834
  23.0304477  32.5308533  63.9445834  23.4694477  31.7168533  61.8865834
  23.6254477  30.9068533  61.3045834  23.7284477  33.0318533  61.3215834
  24.4024477  33.6218533  61.9435834  24.3304477  32.9238533  59.9085834
  23.7924477  32.1558533  59.3535834  24.2214477  34.2278533  59.1865834
  24.7604477  34.9968533  59.7405834  24.6524477  34.1288533  58.1905834
  23.1724477  34.5098533  59.1015834  25.8014477  32.4488533  59.9935834
  25.8414477  31.4718533  60.4755834  26.2184477  32.3758533  58.9895834
  26.3814477  33.1638533  60.5765834  22.4734477  33.9068533  61.3315834
  22.5394477  35.0928533  61.6595834  21.3314477  33.3228533  60.9845834
  21.3284477  32.3938533  60.5895834  20.0604477  34.0418533  61.0755834
  20.1654477  35.0228533  60.6115834  18.9384477  33.2808533  60.3635834
  19.0484477  32.2238533  60.6065834  17.9894477  33.6458533  60.7555834
  18.9654477  33.4588533  58.8555834  19.9664477  33.2028533  58.5085834
  18.2424477  32.7698533  58.4185834  18.6294477  34.8828533  58.4315834
  17.5034477  35.3618533  58.7165834  19.4884477  35.5328533  57.8045834
  19.6934477  34.3258533  62.5295834  18.9834477  35.2868533  62.8165834
  20.1974477  33.5068533  63.4465834  20.7034477  32.6748533  63.1795834
  19.9804477  33.7588533  64.8655834  18.9884477  34.1868533  65.0115834
  20.0784477  32.4638533  65.6765834  20.9334477  31.9108533  65.2885834
  20.2714477  32.7508533  66.7105834  18.8354477  31.5848533  65.6175834
  17.9714477  32.1858533  65.9015834  18.7094477  31.2298533  64.5945834
  18.9564477  30.3838533  66.5645834  18.1794477  29.6608533  66.3155834
  19.9354477  29.9258533  66.4265834  18.8104477  30.7648533  67.9725834
  17.8704477  30.8078533  68.3395834  19.8244477  31.0518533  68.7875834
  21.0764477  31.0078533  68.3425834  21.2594477  30.7558533  67.3815834
  21.8394477  31.2268533  68.9675834  19.5864477  31.3858533  70.0495834
  18.6354477  31.4218533  70.3885834  20.3574477  31.6028533  70.6655834
  20.9634477  34.7818533  65.4335834  20.9524477  35.0368533  66.6425834
  21.8194477  35.3528533  64.5835834  21.8494477  35.0778533  63.6125834
  22.7354477  36.3908533  65.0365834  22.7794477  37.1458533  64.2515834
  22.3044477  36.8288533  65.9365834  24.1484477  35.9138533  65.3445834
  25.0274477  36.7138533  65.6845834  24.3754477  34.6138533  65.2195834
  23.6274477  33.9708533  65.0035834  25.7004477  34.0728533  65.4575834
  26.0594477  34.4038533  66.4315834  25.6824477  32.5468533  65.4375834
  25.0354477  32.2278533  66.2545834  25.2764477  32.1888533  64.4915834
  27.0694477  31.9748533  65.6395834  27.6284477  31.8938533  66.9075834
  27.0394477  32.2258533  67.7625834  28.9084477  31.4028533  67.0985834
  29.3364477  31.3518533  68.0995834  29.6474477  30.9828533  66.0095834
  30.9234477  30.4768533  66.1975834  31.1904477  30.4648533  67.1195834
  29.1144477  31.0598533  64.7375834  29.6974477  30.7318533  63.8765834
  27.8324477  31.5568533  64.5585834  27.4084477  31.6238533  63.5565834
  26.7274477  34.5908533  64.4385834  26.4544477  34.6788533  63.2325834
  27.8984477  34.9528533  64.9415834  28.0244477  34.9458533  65.9435834
  29.0264477  35.3578533  64.1045834  28.8384477  35.0738533  63.0695834
  29.2244477  36.8688533  64.1665834  29.3864477  37.1248533  65.2135834
  30.1244477  37.0938533  63.5945834  28.0614477  37.6808533  63.6205834
  27.1674477  37.4438533  64.1975834  28.2934477  38.7398533  63.7295834
  27.8164477  37.3658533  62.1595834  28.7634477  37.4448533  61.6245834
  27.4404477  36.3458533  62.0835834  26.8454477  38.2728533  61.5335834
  27.1974477  39.1448533  61.1645834  25.5384477  38.0168533  61.4275834
  25.0314477  36.8828533  61.9105834  25.6394477  36.2128533  62.3595834
  24.0424477  36.6988533  61.8255834  24.7334477  38.8928533  60.8345834
  25.1124477  39.7528533  60.4645834  23.7464477  38.6948533  60.7565834
  30.2704477  34.6548533  64.6405834  30.3514477  34.3648533  65.8445834
  31.2344477  34.3628533  63.7665834  31.1224477  34.5428533  62.7785834
  32.4634477  33.7148533  64.2175834  32.2114477  32.8158533  64.7795834
  33.3554477  33.3198533  63.0355834  33.4334477  34.1958533  62.3925834
  34.3364477  33.0828533  63.4465834  32.8494477  32.1438533  62.2265834
  32.8224477  31.2618533  62.8655834  31.8424477  32.3658533  61.8725834
  33.9234477  31.8158533  60.8025834  33.3954477  33.0808533  59.6515834
  33.5564477  34.0648533  60.0925834  33.9724477  32.9978533  58.7305834
  32.3364477  32.9518533  59.4295834  33.2184477  34.6428533  65.1675834
  33.2674477  35.8558533  64.9515834  33.8084477  34.0738533  66.2295834
  33.7304477  32.6518533  66.6135834  33.9574477  32.0278533  65.7485834
  32.7254477  32.4258533  66.9705834  34.7754477  32.5318533  67.7095834
  35.7394477  32.2578533  67.2805834  34.4734477  31.7758533  68.4345834
  34.8234477  33.8928533  68.3425834  35.8224477  34.0348533  68.7535834
  34.0824477  34.0668533  69.1225834  34.5964477  34.8648533  67.1785834
  34.0274477  35.7568533  67.4405834  35.9404477  35.2758533  66.5835834
  36.3034477  34.8418533  65.4865834  36.6654477  36.1168533  67.3115834
  36.2704477  36.4888533  68.1635834  38.0034477  36.5418533  66.9285834
  37.9854477  37.0248533  65.9515834  38.5234477  37.5448533  67.9595834
  37.7524477  38.2798533  68.1885834  38.8124477  37.0258533  68.8735834
  39.9714477  38.4848533  67.4385834  40.0874477  39.1938533  68.5575834
  38.9584477  35.3508533  66.8495834  39.1504477  34.6298533  67.8405834
  39.5614477  35.1398533  65.6685834  39.3524477  35.9638533  64.4645834
  39.8884477  36.9068533  64.5675834  38.2884477  36.1638533  64.3365834
  39.9084477  35.1018533  63.3705834  40.2324477  35.7088533  62.5255834
  39.1674477  34.3768533  63.0335834  41.0844477  34.4058533  64.0365834
  41.9074477  35.1208533  64.0565834  41.4194477  33.4798533  63.5695834
  40.6004477  34.1258533  65.4675834  40.1654477  33.1398533  65.6305834
  41.7594477  34.3348533  66.4355834  42.0584477  35.4828533  66.7645834
  42.4084477  33.2418533  66.8705834  42.1224477  31.8638533  66.4255834
  42.3404477  31.7778533  65.3605834  41.0694477  31.6418533  66.5995834
  43.0324477  31.0198533  67.2695834  43.3964477  30.1868533  66.6675834
  42.4674477  30.6348533  68.1185834  44.1654477  31.9008533  67.7325834
  44.9554477  31.8388533  66.9835834  44.5724477  31.6478533  68.7115834
  43.5784477  33.3298533  67.7595834  43.2434477  33.6548533  68.7445834
  44.6114477  34.3238533  67.2185834  45.0084477  34.2178533  66.0535834
  45.0394477  35.2628533  68.0565834  44.6064477  35.3478533  68.9655834
  46.0694477  36.2418533  67.6815834  46.3254477  36.8458533  68.5515834
  47.3374477  35.5558533  67.1735834  47.0184477  34.7548533  66.5065834
  47.8934477  36.3008533  66.6045834  48.2314477  34.9798533  68.2685834
  48.0954477  35.5798533  69.1685834  47.9084477  33.9568533  68.4625834
  49.7054477  34.9818533  67.8735834  50.0554477  34.2848533  66.8935834
  50.5084477  35.6818533  68.5425834  45.6044477  37.2548533  66.6425834
  46.3854477  38.1088533  66.2225834  44.3604477  37.1488533  66.1855834
  43.7764477  36.3438533  66.3595834  43.8314477  38.2188533  65.3485834
  44.6124477  38.5548533  64.6665834  42.6244477  37.7638533  64.5235834
  42.8944477  36.9758533  63.8205834  41.8114477  37.4178533  65.1615834
  41.9364477  39.1228533  63.5205834  40.9604477  38.4078533  62.9675834
  43.4534477  39.4018533  66.2485834  42.6854477  39.2388533  67.1955834
  44.0094477  40.5948533  65.9655834  44.8754477  40.8938533  64.8175834
  44.2744477  40.9628533  63.9105834  45.6184477  40.1048533  64.7005834
  45.4904477  42.2058533  65.2025834  45.7374477  42.7738533  64.3055834
  46.3964477  42.0308533  65.7825834  44.4524477  42.9108533  66.0295834
  43.8074477  43.4338533  65.3235834  44.8324477  43.6178533  66.7665834
  43.6634477  41.7968533  66.7305834  43.9234477  41.6428533  67.7775834
  42.1744477  42.0768533  66.6155834  41.5734477  41.8338533  65.5635834
  41.5904477  42.5868533  67.6925834  42.1414477  42.7668533  68.5195834
  40.1524477  42.8288533  67.7525834  39.6094477  41.9058533  67.5465834
  39.7614477  43.3248533  69.1455834  40.1834477  44.3218533  69.2695834
  38.6734477  43.3838533  69.1805834  40.2564477  42.4208533  70.2675834
  39.8474477  41.4288533  70.0755834  41.3444477  42.3808533  70.2195834
  39.8244477  42.8898533  71.6595834  40.4684477  43.8178533  72.2055834
  38.8534477  42.3188533  72.2145834  39.6714477  43.8148533  66.6855834
  38.5304477  43.7338533  66.2315834  40.5324477  44.7568533  66.3165834
  41.4504477  44.7848533  66.7355834  40.1834477  45.7898533  65.3465834
  39.2604477  46.2858533  65.6475834  41.2994477  46.8398533  65.2645834
  41.0864477  47.5048533  64.4275834  41.3034477  47.4128533  66.1915834
  42.5724477  46.2348533  65.0765834  43.2464477  46.9168533  65.0295834
  39.9414477  45.1808533  63.9685834  39.1504477  45.6808533  63.1815834
  40.6264477  44.0828533  63.6865834  41.3264477  43.7428533  64.3305834
  40.4394477  43.3708533  62.4305834  40.2674477  44.0878533  61.6275834
  41.6814477  42.5278533  62.0805834  42.5074477  43.2338533  62.1685834
  41.7704477  41.7668533  62.8565834  41.7254477  41.8598533  60.7035834
  40.9374477  41.1078533  60.6565834  41.5214477  42.8838533  59.5835834
  42.3094477  43.6358533  59.6295834  41.5574477  42.3788533  58.6185834
  40.5514477  43.3668533  59.7045834  43.0664477  41.1488533  60.5285834
  43.1804477  40.3918533  61.3045834  43.1004477  40.6718533  59.5485834
  43.8764477  41.8748533  60.6075834  39.2074477  42.4948533  62.5155834
  38.5694477  42.2368533  61.5035834  38.8654477  42.0348533  63.7185834
  39.4484477  42.1778533  64.5305834  37.6624477  41.2258533  63.8655834
  37.5664477  40.5728533  62.9975834  37.6984477  40.3638533  65.1215834
  38.4974477  39.6278533  65.0375834  37.8594477  40.9748533  66.0095834
  36.4314477  39.5968533  65.3535834  35.6634477  39.7548533  66.4885834
  34.6114477  38.9568533  66.4225834  33.8844477  38.9298533  67.2335834
  34.6614477  38.2928533  65.2785834  33.9884477  37.6138533  64.9525834
  35.7914477  38.6788533  64.5915834  36.0124477  38.2438533  63.6165834
  36.4254477  42.1118533  63.8555834  35.3494477  41.6628533  63.4405834
  36.5774477  43.3588533  64.3145834  37.4424477  43.6358533  64.7555834
  35.5204477  44.3618533  64.1675834  34.6454477  44.0568533  64.7415834
  35.9874477  45.7278533  64.6765834  36.9484477  45.9378533  64.2065834
  35.2584477  46.4738533  64.3615834  36.1414477  45.7778533  66.1825834
  35.5624477  44.9048533  66.8835834  36.8394477  46.7048533  66.6645834
  35.1684477  44.5148533  62.6895834  34.0004477  44.4828533  62.2985834
  36.2044477  44.7018533  61.8785834  37.1334477  44.7748533  62.2675834
  36.0484477  44.8318533  60.4405834  35.5124477  45.7498533  60.2015834
  37.4254477  44.8828533  59.7755834  38.0434477  45.5048533  60.4225834
  37.8224477  43.8678533  59.7605834  37.4364477  45.4538533  58.3605834
  36.7394477  44.8948533  57.7355834  37.0144477  46.9278533  58.4045834
  37.7114477  47.4868533  59.0285834  37.0214477  47.3388533  57.3945834
  36.0104477  47.0068533  58.8215834  38.8184477  45.3188533  57.7695834
  39.0984477  44.2658533  57.7365834  38.8234477  45.7278533  56.7585834
  39.5324477  45.8658533  58.3855834  35.2454477  43.6538533  59.8865834
  34.2774477  43.8528533  59.1505834  35.6484477  42.4248533  60.2365834
  36.4974477  42.2758533  60.7635834  34.8674477  41.2618533  59.8425834
  34.9234477  41.1268533  58.7625834  35.4054477  40.0038533  60.5195834
  35.3794477  40.1798533  61.5945834  34.7274477  39.1878533  60.2685834
  36.8224477  39.6338533  60.1005834  36.7914477  39.2628533  59.0765834
  37.4384477  40.5318533  60.1425834  37.5434477  38.3688533  61.1695834
  39.1524477  38.1888533  60.4115834  39.6784477  39.1428533  60.4425834
  39.7284477  37.4398533  60.9545834  39.0334477  37.8738533  59.3745834
  33.4044477  41.4488533  60.2265834  32.5044477  41.2358533  59.4025834
  33.1604477  41.8278533  61.4825834  33.9204477  41.9678533  62.1335834
  31.7954477  41.9028533  61.9875834  31.2664477  40.9838533  61.7335834
  31.7674477  42.0788533  63.5105834  32.4404477  42.8778533  63.8205834
  30.7574477  42.2998533  63.8565834  32.2974477  40.5908533  64.4175834
  32.1454477  41.1078533  65.6335834  30.9744477  42.9828533  61.2555834
  29.7814477  42.7898533  61.0045834  31.6194477  44.0788533  60.8615834
  32.5504477  44.2698533  61.2025834  30.9764477  45.0758533  60.0035834
  30.0234477  45.3788533  60.4385834  31.8624477  46.3098533  59.8635834
  32.8214477  45.9948533  59.4535834  31.3794477  46.9978533  59.1695834
  32.0854477  47.0058533  61.1915834  31.1524477  47.4838533  61.4915834
  32.3624477  46.2548533  61.9315834  33.1764477  48.0608533  61.1395834
  33.6774477  48.4078533  60.0735834  33.5484477  48.5778533  62.3035834
  34.2704477  49.2838533  62.3315834  33.1084477  48.2628533  63.1565834
  30.6244477  44.4928533  58.6335834  29.5604477  44.7838533  58.0795834
  31.4954477  43.6488533  58.0925834  32.3964477  43.4778533  58.5165834
  31.1834477  42.9768533  56.8405834  30.9124477  43.7188533  56.0895834
  32.3854477  42.1708533  56.3225834  32.7654477  41.5238533  57.1125834
  32.0844477  41.5628533  55.4695834  33.8104477  43.1708533  55.7555834
  34.5764477  42.1388533  55.4125834  29.9864477  42.0458533  57.0085834
  29.3034477  41.7518533  56.0285834  29.7364477  41.5888533  58.2385834
  30.3064477  41.8998533  59.0115834  28.6914477  40.5958533  58.5015834
  28.3734477  40.1388533  57.5645834  29.2134477  39.4968533  59.4285834
  29.5224477  39.9128533  60.3875834  28.4284477  38.7578533  59.5895834
  30.3924477  38.7568533  58.8835834  30.6824477  38.5338533  57.5725834
  29.9844477  38.9338533  56.8365834  31.8534477  37.8148533  57.4635834
  32.2704477  37.5028533  56.5985834  32.3524477  37.5798533  58.7185834
  33.5064477  36.9018533  59.1155834  34.1534477  36.4828533  58.3445834
  33.7544477  36.8058533  60.4605834  34.6454477  36.2838533  60.8075834
  32.8854477  37.3658533  61.4045834  33.0904477  37.2878533  62.4725834
  31.7274477  38.0428533  61.0055834  31.0734477  38.4518533  61.7765834
  31.4564477  38.1548533  59.6415834  27.4114477  41.1758533  59.1095834
  26.5974477  40.4308533  59.6795834  27.2344477  42.4918533  58.9995834
  27.9554477  43.0748533  58.5975834  26.0314477  43.1408533  59.5315834
  25.9354477  42.9088533  60.5925834  26.0974477  44.6628533  59.3675834
  26.2074477  44.8758533  58.3045834  25.1534477  45.0748533  59.7235834
  27.2524477  45.2998533  60.1365834  27.5284477  44.6278533  60.9495834
  28.0944477  45.4068533  59.4525834  26.8884477  46.6528533  60.7035834
  25.8304477  46.8348533  60.5145834  27.0674477  46.6378533  61.7785834
  27.6654477  47.7458533  60.1135834  27.5484477  47.9078533  59.1235834
  28.5044477  48.5268533  60.7905834  28.6864477  48.3418533  62.0915834
  28.1864477  47.6058533  62.5685834  29.3244477  48.9378533  62.5985834
  29.1634477  49.4978533  60.1645834  29.0254477  49.6408533  59.1745834
  29.7994477  50.0878533  60.6825834  24.7814477  42.5678533  58.8585834
  24.7814477  42.2948533  57.6525834  23.7264477  42.3538533  59.6415834
  23.7634477  42.5498533  60.6315834  22.4964477  41.7968533  59.0935834
  22.6684477  40.7788533  58.7425834  21.4194477  41.7648533  60.1705834
  21.8904477  41.3688533  61.0705834  21.1204477  42.7988533  60.3425834
  20.1914477  40.9318533  59.8335834  19.8344477  41.2038533  58.8405834
  20.4594477  39.8758533  59.8455834  19.0884477  41.1888533  60.8585834
  19.5574477  41.3348533  61.8315834  18.5624477  42.0988533  60.5695834
  18.1034477  40.0398533  60.9395834  18.6214477  39.1718533  61.3465834
  17.2954477  40.3278533  61.6115834  17.5404477  39.7008533  59.6025834
  18.2894477  39.4338533  58.9795834  16.8904477  38.9338533  59.6955834
  17.0594477  40.5048533  59.2255834  22.0154477  42.6228533  57.8985834
  21.6704477  42.0728533  56.8425834  21.9794477  43.9428533  58.0655834
  22.2194477  44.3548533  58.9555834  21.5534477  44.8288533  56.9835834
  20.7124477  44.3838533  56.4525834  21.1164477  46.1888533  57.5405834
  21.9994477  46.6498533  57.9845834  20.7824477  46.7868533  56.6925834
  20.0034477  46.1158533  58.5815834  20.4294477  45.7418533  59.5125834
  19.6264477  47.1268533  58.7355834  18.8604477  45.2088533  58.1465834
  18.3934477  45.3408533  56.9905834  18.4324477  44.3568533  58.9595834
  22.6734477  45.0278533  55.9665834  23.7564477  45.5058533  56.3145834
  22.4194477  44.6668533  54.6995834  21.1864477  44.0538533  54.1745834
  20.4504477  44.8278533  53.9575834  20.7764477  43.3598533  54.9075834
  21.6784477  43.3508533  52.9245834  20.8724477  43.2428533  52.1985834
  22.0824477  42.3678533  53.1675834  22.7694477  44.2738533  52.4085834
  22.3154477  45.1118533  51.8795834  23.4914477  43.7808533  51.7575834
  23.4664477  44.7748533  53.6755834  24.3044477  44.1518533  53.9895834
  23.9484477  46.2058533  53.4665834  25.1584477  46.4098533  53.3175834
  23.0354477  47.1758533  53.4425834  22.0494477  46.9648533  53.4935834
  23.4364477  48.5608533  53.1865834  24.1004477  48.5888533  52.3225834
  22.2154477  49.4638533  52.9005834  22.6034477  50.3848533  52.4645834
  21.6064477  48.9408533  52.1625834  21.3624477  49.7988533  54.1175834
  22.0284477  49.8538533  54.9785834  20.9164477  50.7778533  53.9415834
  20.2554477  48.7748533  54.3925834  20.2404477  47.6788533  53.7705834
  19.3904477  49.0778533  55.2475834  24.3274477  49.1568533  54.2905834
  25.0184477  50.1578533  54.0615834  24.3114477  48.5488533  55.4775834
  23.6864477  47.7728533  55.6425834  25.1324477  49.0258533  56.5875834
  25.3374477  50.0888533  56.4635834  24.4104477  48.8198533  57.9185834
  24.0424477  47.7938533  57.9305834  25.1484477  48.9498533  58.7095834
  23.2424477  49.7838533  58.1465834  22.5584477  49.6828533  57.3035834
  22.7374477  49.4778533  59.0625834  23.6844477  51.2388533  58.2715834
  24.3684477  51.5808533  59.2635834  23.3514477  52.0458533  57.3765834
  26.5024477  48.3378533  56.6085834  27.3134477  48.5708533  57.5005834
  26.7494477  47.4908533  55.6165834  26.0004477  47.2138533  54.9985834
  28.0664477  46.8858533  55.4245834  28.5324477  46.6958533  56.3915834
  27.9364477  45.5558533  54.6745834  27.0614477  45.6168533  54.0275834
  28.8304477  45.4228533  54.0645834  27.7874477  44.3798533  55.6125834
  28.6434477  43.7298533  55.4315834  27.8444477  44.7818533  56.6245834
  26.5014477  43.5808533  55.4565834  26.4484477  42.8648533  56.2765834
  25.6634477  44.2738533  55.5255834  26.4054477  42.8558533  54.1955834
  27.0784477  43.0748533  53.4745834  25.4874477  41.9228533  53.9465834
  24.5994477  41.5778533  54.8735834  24.6184477  42.0268533  55.7785834
  23.9104477  40.8688533  54.6685834  25.4544477  41.3368533  52.7645834
  26.1244477  41.5988533  52.0555834  24.7594477  40.6298533  52.5745834
  28.9614477  47.8688533  54.6815834  28.4684477  48.6628533  53.8685834
  30.2754477  47.8488533  54.9655834  30.9924477  47.0038533  55.9375834
  30.8734477  45.9568533  55.6605834  30.5754477  47.1658533  56.9315834
  32.4304477  47.4748533  55.8305834  32.9904477  46.7348533  55.2585834
  32.8424477  47.5438533  56.8375834  32.4434477  48.7868533  55.1675834
  33.2994477  48.8438533  54.4955834  32.4924477  49.6028533  55.8885834
  31.1384477  48.8778533  54.3605834  30.6544477  49.8438533  54.5015834
  31.3834477  48.6448533  52.8705834  31.0924477  47.5708533  52.3505834
  31.8784477  49.6598533  52.1785834  32.0674477  50.5468533  52.6225834
  32.1844477  49.5178533  50.7685834  31.3964477  48.9318533  50.2965834
  32.2414477  50.8828533  50.0995834  32.5224477  50.7458533  49.0555834
  30.8814477  51.6018533  50.1745834  30.5994477  51.7398533  51.2185834
  30.9564477  52.5738533  49.6875834  30.1244477  51.0008533  49.6705834
  33.2014477  51.6738533  50.7965834  33.2554477  52.5428533  50.3915834
  33.5554477  48.8488533  50.6135834  34.3594477  48.7968533  51.5685834
  33.8284477  48.3428533  49.4165834  33.1094477  48.1948533  48.7225834
  35.1574477  47.8478533  49.1425834  35.4844477  47.2178533  49.9695834
  35.1954477  47.0208533  47.8525834  34.5754477  47.4528533  47.0665834
  36.2274477  46.9598533  47.5075834  34.7164477  45.5898533  48.0485834
  35.4874477  44.6838533  48.7525834  36.4534477  44.9978533  49.1475834
  35.0394477  43.3758533  48.9595834  35.6654477  42.6718533  49.5075834
  33.8024477  42.9718533  48.4705834  33.4504477  41.9528533  48.6325834
  33.0194477  43.8688533  47.7775834  32.0464477  43.5618533  47.3945834
  33.4734477  45.1718533  47.5655834  32.8554477  45.8818533  47.0155834
  36.1574477  48.9978533  49.1545834  37.3294477  48.7948533  49.4365834
  35.6864477  50.2108533  48.8685834  34.7264477  50.3198533  48.5745834
  36.5304477  51.4018533  48.9345834  37.4084477  51.2698533  48.3025834
  35.7514477  52.6368533  48.4425834  35.2614477  52.3488533  47.5125834
  34.9964477  52.8528533  49.1985834  36.6024477  53.8778533  48.2055834
  37.1634477  54.0728533  49.1195834  37.2964477  53.6698533  47.3905834
  35.7554477  55.1068533  47.8535834  34.5174477  55.0658533  48.0605834
  36.3284477  56.1038533  47.3635834  37.0184477  51.6358533  50.3695834
  38.2174477  51.8558533  50.5985834  36.1014477  51.5968533  51.3365834
  35.1164477  51.5528533  51.1155834  36.4954477  51.6768533  52.7485834
  37.0514477  52.5988533  52.9205834  35.2594477  51.6688533  53.6685834
  34.6944477  52.5698533  53.4285834  34.6534477  50.7898533  53.4475834
  35.6224477  51.6758533  55.1505834  35.8794477  52.8708533  55.8215834
  35.7974477  53.8078533  55.2705834  36.2364477  52.8838533  57.1735834
  36.4284477  53.8308533  57.6775834  36.3454477  51.6978533  57.8695834
  36.6974477  51.7268533  59.2135834  36.8384477  52.6168533  59.5455834
  36.1034477  50.4908533  57.2245834  36.1904477  49.5488533  57.7665834
  35.7454477  50.4888533  55.8685834  35.5574477  49.5458533  55.3555834
  37.4464477  50.5188533  53.1475834  38.4774477  50.7258533  53.8095834
  37.0924477  49.3028533  52.7485834  36.2454477  49.1568533  52.2175834
  37.8924477  48.1258533  53.1235834  37.9484477  48.0568533  54.2095834
  37.2704477  46.8358533  52.5825834  37.1264477  47.0538533  51.5245834
  37.9584477  45.9968533  52.6905834  35.9244477  46.4758533  53.2165834
  35.3214477  47.3828533  53.2595834  35.1634477  45.3898533  52.4235834
  35.7654477  44.4818533  52.3805834  34.2164477  45.1738533  52.9185834
  34.9704477  45.7458533  51.4115834  36.1404477  46.0678533  54.6635834
  36.5904477  46.8958533  55.2115834  35.1824477  45.8108533  55.1165834
  36.8034477  45.2038533  54.7025834  39.3094477  48.2998533  52.6115834
  40.2414477  48.2018533  53.3825834  39.4684477  48.5648533  51.3165834
  38.6704477  48.5668533  50.6975834  40.7844477  48.7468533  50.7415834
  41.3534477  47.8248533  50.8595834  40.7204477  49.0948533  49.2495834
  40.3464477  48.2288533  48.7025834  40.0364477  49.9328533  49.1135834
  42.1174477  49.4778533  48.7125834  42.5454477  50.2238533  49.3815834
  42.7364477  48.5808533  48.7255834  42.1084477  50.0408533  47.2995834
  43.1524477  50.4808533  46.7755834  40.9444477  50.0288533  46.6725834
  40.8774477  50.3898533  45.7315834  40.1274477  49.6588533  47.1375834
  41.6234477  49.7938533  51.4935834  42.7804477  49.5338533  51.8485834
  41.0564477  50.9728533  51.7315834  40.1144477  51.1758533  51.4285834
  41.8234477  52.0398533  52.3765834  42.7644477  52.1488533  51.8375834
  41.0684477  53.3768533  52.3215834  40.1274477  53.2858533  52.8645834
  41.6774477  54.1578533  52.7785834  40.8644477  53.6368533  51.2825834
  42.1644477  51.6758533  53.8215834  43.2614477  51.9848533  54.3155834
  41.2144477  51.0378533  54.5015834  40.3164477  50.8728533  54.0695834
  41.4004477  50.6288533  55.8905834  41.6774477  51.4888533  56.4995834
  40.0924477  50.0358533  56.4435834  39.3384477  50.8198533  56.5105834
  39.7334477  49.2418533  55.7895834  40.2154477  49.4378533  57.8205834
  40.6174477  48.1118533  57.9915834  40.8404477  47.5108533  57.1105834
  40.7354477  47.5518533  59.2695834  41.0504477  46.5148533  59.3885834
  40.4474477  48.3278533  60.3955834  40.5354477  47.9058533  61.3965834
  40.0464477  49.6478533  60.2305834  39.8284477  50.2618533  61.1045834
  39.9224477  50.1888533  58.9465834  39.5904477  51.2188533  58.8185834
  42.5674477  49.6298533  55.9935834  43.4234477  49.7468533  56.8815834
  42.6034477  48.6678533  55.0735834  41.8884477  48.6178533  54.3615834
  43.6034477  47.6008533  55.1275834  43.7644477  47.3088533  56.1655834
  43.1474477  46.3608533  54.3315834  42.8994477  46.8088533  53.3695834
  44.0144477  45.7108533  54.2165834  41.9514477  45.5348533  54.8355834
  41.1744477  46.2138533  55.1855834  41.3954477  44.6588533  53.7155834
  42.1724477  43.9788533  53.3655834  40.5504477  44.0818533  54.0905834
  41.0664477  45.2898533  52.8895834  42.2854477  44.6848533  56.0585834
  42.6074477  45.3318533  56.8745834  41.4014477  44.1258533  56.3655834
  43.0864477  43.9888533  55.8095834  44.9674477  48.1058533  54.6505834
  45.9914477  47.7268533  55.2085834  44.9904477  48.9808533  53.6475834
  44.1644477  49.1768533  53.1005834  46.2624477  49.5908533  53.2315834
  46.9914477  48.8078533  53.0195834  46.0734477  50.4478533  51.9585834
  45.2584477  51.1398533  52.1705834  46.9984477  51.0078533  51.8235834
  45.7554477  49.6568533  50.6655834  46.6234477  49.0378533  50.4355834
  44.8964477  49.0168533  50.8655834  45.4454477  50.5708533  49.4665834
  45.4454477  51.8128533  49.6395834  45.1974477  50.0508533  48.3525834
  46.9544477  50.4118533  54.3525834  48.1914477  50.4118533  54.4605834
  46.1634477  51.1048533  55.1725834  45.1614477  51.0408533  55.0655834
  46.6964477  51.9778533  56.2225834  47.7074477  52.2918533  55.9635834
  45.8204477  53.2268533  56.3795834  44.7844477  52.8988533  56.4665834
  46.1194477  53.7308533  57.2985834  45.9494477  54.1788533  55.2205834
  46.6264477  53.8328533  54.2155834  45.3684477  55.2818533  55.3175834
  46.7744477  51.2918533  57.5735834  47.1744477  51.9078533  58.5595834
  46.3954477  50.0168533  57.6105834  46.2364477  49.5208533  56.7455834
  46.1294477  49.3248533  58.8595834  45.2284477  49.7218533  59.3275834
  45.9204477  47.8358533  58.5825834  45.1964477  47.7458533  57.7725834
  46.8814477  47.4388533  58.2555834  45.4334477  47.0528533  59.7825834
  44.1144477  47.1598533  60.2155834  43.4394477  47.8288533  59.6815834
  43.6524477  46.4318533  61.3085834  42.6104477  46.5088533  61.6195834
  44.5124477  45.5798533  61.9775834  44.0424477  44.8818533  63.0735834
  43.1214477  45.0678533  63.2695834  45.8354477  45.4608533  61.5735834
  46.5194477  44.7998533  62.1065834  46.2874477  46.1948533  60.4765834
  47.3234477  46.1028533  60.1485834  47.1914477  49.4788533  59.9395834
  46.8704477  49.7218533  61.1015834  48.4544477  49.3148533  59.5685834
  48.7054477  49.1418533  58.6055834  49.4894477  49.2048533  60.5795834
  49.0634477  48.7968533  61.4965834  50.6184477  48.2768533  60.1075834
  50.9844477  48.5668533  59.1225834  51.4394477  48.3108533  60.8235834
  50.1954477  46.8288533  60.0025834  50.1584477  46.0168533  61.1315834
  50.4344477  46.4378533  62.0985834  49.7764477  44.6868533  61.0385834
  49.7764477  44.0658533  61.9345834  49.3964477  44.1448533  59.8175834
  49.0874477  43.1018533  59.7485834  49.4124477  44.9378533  58.6835834
  49.1184477  44.5248533  57.7185834  49.8124477  46.2888533  58.7805834
  49.8224477  46.9188533  57.8915834  49.9954477  50.5568533  61.0615834
  50.7294477  50.6188533  62.0635834  49.5854477  51.6298533  60.3825834
  49.1594477  51.5238533  59.4735834  49.7864477  53.0068533  60.9115834
  50.5704477  52.9978533  61.6685834  50.1814477  53.9978533  59.8095834
  49.3884477  54.0158533  59.0625834  50.3904477  55.4158533  60.3695834
  51.1844477  55.3988533  61.1165834  50.6694477  56.0898533  59.5595834
  49.4664477  55.7648533  60.8305834  51.3894477  53.5608533  59.1865834
  51.6364477  54.1808533  58.4965834  48.5474477  53.5748533  61.6295834
  48.6504477  54.0668533  62.7555834  47.3814477  53.4968533  60.9925834
  47.3274477  53.0608533  60.0835834  46.1754477  54.1428533  61.5285834
  46.4474477  55.0458533  62.0755834  45.2334477  54.5298533  60.3815834
  45.0054477  53.6368533  59.7995834  44.3134477  54.9318533  60.8055834
  45.8314477  55.5048533  59.5375834  45.2244477  55.7308533  58.8285834
  45.3884477  53.3678533  62.5945834  44.6774477  53.9728533  63.3985834
  45.4944477  52.0398533  62.5985834  46.1174477  51.5618533  61.9635834
  44.6404477  51.2358533  63.4635834  44.0294477  51.8928533  64.0825834
  43.7014477  50.3138533  62.6415834  44.2914477  49.5038533  62.2145834
  42.6054477  49.7328533  63.5205834  42.0144477  50.5428533  63.9485834
  41.9604477  49.0898533  62.9215834  43.0544477  49.1488533  64.3235834
  43.1034477  51.0728533  61.5875834  42.5214477  50.5068533  61.0755834
  45.4214477  50.4048533  64.4625834  45.0774477  50.3708533  65.6375834
  46.4824477  49.7508533  63.9875834  46.6924477  49.8168533  63.0015834
  47.3444477  48.9138533  64.8265834  47.0504477  49.0148533  65.8715834
  47.2254477  47.4338533  64.4235834  47.4434477  47.3668533  63.3575834
  47.9794477  46.8808533  64.9835834  45.8614477  46.8428533  64.6965834
  45.1244477  47.3378533  64.0645834  45.9044477  45.7838533  64.4415834
  45.4654477  46.9958533  66.1465834  46.3714477  47.0668533  66.9945834
  44.2534477  47.0638533  66.4365834  48.8094477  49.3378533  64.7235834
  49.6474477  48.5758533  64.2355834  49.1204477  50.5588533  65.1775834
  48.2004477  51.5138533  65.8285834  47.6094477  50.9958533  66.5835834
  47.5344477  51.9478533  65.0825834  49.1364477  52.5328533  66.4245834
  49.4414477  52.2288533  67.4255834  48.6534477  53.5088533  66.4735834
  50.2974477  52.5588533  65.4845834  51.1734477  52.9078533  66.0315834
  50.1584477  53.1708533  64.5925834  50.4824477  51.0898533  65.0875834
  50.8434477  50.9308533  64.0715834  51.4294477  50.4118533  66.0755834
  52.6424477  50.4768533  65.8925834  50.8784477  49.7778533  67.1075834
  49.8774477  49.7958533  67.2435834  51.7014477  49.1078533  68.1105834
  52.7374477  49.4328533  68.0135834  51.2114477  49.4458533  69.5275834
  50.1794477  49.0998533  69.5945834  51.8314477  48.8748533  70.2195834
  51.2764477  50.9388533  69.8935834  50.5554477  51.4748533  69.2765834
  51.0104477  51.0528533  70.9445834  52.6574477  51.5488533  69.6715834
  53.5864477  51.3148533  70.4455834  52.7914477  52.3398533  68.6095834
  53.6834477  52.7708533  68.4135834  52.0004477  52.5058533  68.0045834
  51.7464477  47.5858533  67.9255834  52.0804477  46.8578533  68.8515834
  51.4124477  47.1098533  66.7315834  51.1054477  47.7428533  66.0065834
  51.4264477  45.6778533  66.4405834  50.7514477  45.1518533  67.1165834
  50.9654477  45.4328533  64.9995834  49.8774477  45.4978533  65.0035834
  51.3744477  46.2248533  64.3725834  51.3874477  44.0908533  64.4525834
  50.6104477  42.9558533  64.6715834  49.6814477  43.0528533  65.2335834
  50.9974477  41.7298533  64.1925834  50.3844477  40.8458533  64.3695834
  52.1794477  41.6218533  63.4755834  52.5794477  40.4068533  62.9845834
  51.9674477  39.6978533  63.1945834  52.9704477  42.7308533  63.2465834
  53.9014477  42.6438533  62.6865834  52.5714477  43.9568533  63.7345834
  53.1864477  44.8398533  63.5595834  52.8074477  45.0428533  66.6465834
  53.8164477  45.5618533  66.1675834  52.8444477  43.9238533  67.3615834
  52.0274477  43.6378533  67.8825834  54.0454477  43.0868533  67.4375834
  54.8254477  43.5108533  66.8055834  54.5714477  43.0048533  68.8805834
  53.7804477  42.5358533  69.4655834  55.4394477  42.3458533  68.8505834
  54.9654477  44.3398533  69.5295834  54.1724477  45.0628533  69.3365834
  55.0564477  44.1788533  70.6035834  56.2804477  44.9088533  69.0085834
  56.6514477  44.6988533  67.8525834  56.9904477  45.6398533  69.8675834
  57.8704477  46.0418533  69.5765834  56.6454477  45.7878533  70.8055834
  53.7064477  41.6728533  66.9325834  52.6344477  41.1488533  67.2305834
  54.6114477  41.0478533  66.1565834  55.8934477  41.5328533  65.6175834
  56.4184477  42.1058533  66.3815834  55.7094477  42.1678533  64.7505834
  56.6104477  40.2598533  65.2545834  57.1824477  39.8978533  66.1085834
  57.2834477  40.4378533  64.4155834  55.5214477  39.2928533  64.8735834
  55.8774477  38.2948533  65.1295834  55.2274477  39.3148533  63.8245834
  54.3264477  39.6628533  65.7595834  53.3654477  39.6338533  65.2455834
  54.2774477  38.7518533  66.9775834  54.9744477  39.0268533  67.9535834
  53.4474477  37.7098533  66.9195834  52.8304477  37.6258533  66.1245834
  53.3884477  36.6858533  67.9495834  54.0814477  36.9358533  68.7535834
  52.3754477  36.6268533  68.3485834  53.7704477  35.3358533  67.3695834
  54.5794477  35.2618533  66.4355834  53.1844477  34.2688533  67.9055834
  52.5364477  34.3768533  68.6735834  53.5544477  32.9188533  67.4985834
  54.6404477  32.8328533  67.4565834  53.0194477  31.8848533  68.4955834
  52.0354477  32.2198533  68.8225834  52.9224477  30.9368533  67.9675834
  53.9204477  31.6998533  69.7075834  53.9094477  32.6198533  70.2925834
  53.5124477  30.8848533  70.3055834  55.3544477  31.3688533  69.3095834
  55.6604477  30.1688533  69.0985834  56.1714477  32.3108533  69.1995834
  53.1464477  32.5598533  66.0695834  53.9044477  31.8868533  65.3685834
  51.9634477  33.0098533  65.6505834  51.3934477  33.5498533  66.2865834
  51.4074477  32.6688533  64.3385834  52.1614477  32.1708533  63.7285834
  50.2194477  31.7268533  64.5115834  49.4794477  32.2108533  65.1495834
  49.7804477  31.5278533  63.5335834  50.6144477  30.4018533  65.1455834
  51.2524477  29.5608533  64.5085834  50.2344477  30.2088533  66.4025834
  50.4704477  29.3458533  66.8715834  49.7104477  30.9258533  66.8845834
  50.9974477  33.8648533  63.4515834  51.0764477  33.7838533  62.2225834
  50.5714477  34.9678533  64.0655834  50.5074477  34.9898533  65.0735834
  50.1294477  36.1578533  63.3095834  50.2884477  35.9958533  62.2435834
  48.6434477  36.4278533  63.5465834  48.5594477  36.4208533  64.6335834
  48.4624477  37.4368533  63.1755834  47.6094477  35.4718533  62.9485834
  47.8844477  34.4438533  63.1855834  46.2354477  35.7778533  63.5335834
  45.9594477  36.8048533  63.2965834  45.4984477  35.0968533  63.1075834
  46.2644477  35.6508533  64.6155834  47.5864477  35.6048533  61.4495834
  48.5704477  35.3628533  61.0475834  46.8474477  34.9198533  61.0345834
  47.3254477  36.6278533  61.1785834  50.9254477  37.4188533  63.6555834
  51.3744477  37.5878533  64.7935834  51.1324477  38.3048533  62.8105834
  46.1524477  54.9128533  50.8705834  36.1524477  44.9128533  69.8705834
  50.1524477  38.9128533  67.8705834  14.1524477  43.9128533  36.8705834
  34.1524477  27.9128533  40.8705834  67.1747180  61.9501270  78.7560400
  67.0941230  61.0355880  78.4852110  66.7611600  62.4468340  78.0500110
  65.3065220  63.7280290  80.6369670  64.5307320  63.2480730  80.9268240
  65.9578150  63.0485940  80.4625830  59.3231050  64.0400100  81.5145430
  58.4915930  63.7848810  81.9141940  59.9312030  64.1110870  82.2503350
  57.7323000  59.0001990  75.2987820  56.8439700  59.3417960  75.1967700
  58.0164190  58.8002310  74.4068650  55.6956010  61.6007640  81.1827520
  56.2672120  60.8329840  81.1831160  55.6957550  61.8996400  80.2734130
  64.7474210  66.4037480  80.6439830  64.6782490  65.4627420  80.4828960
  65.5094070  66.4938890  81.2162400  56.9380880  57.0092000  82.9696450
  56.7583720  56.1117750  83.2499210  56.5360960  57.5563870  83.6443400
  65.7779380  59.2107860  80.8708760  66.1544200  58.3379740  80.7582430
  65.6798890  59.5466560  79.9799200  59.9084390  57.5833490  76.3326200
  60.0151140  58.4837220  76.6394960  58.9976750  57.5351460  76.0420850
  69.5603500  56.7058300  77.8037100  70.3813120  56.2154870  77.8462580
  69.5937580  57.2955960  78.5568940  57.5567550  59.5052500  81.5778790
  58.2377660  59.7690870  82.1966190  57.2415600  58.6653370  81.9116800
  61.7492120  60.5519860  80.6651380  62.2570340  61.0500830  81.3056400
  62.2805360  59.7755060  80.4890740  66.4199310  65.3037730  76.4304700
  65.8016580  65.7687180  75.8667420  66.9322560  65.9965210  76.8474210
  61.2831070  64.8313600  83.1088300  60.9500450  65.4582520  83.7509370
  61.4597750  65.3575480  82.3289970  69.7964980  58.6458680  80.5764640
  69.0920550  58.9343570  81.1567750  70.1577140  59.4558790  80.2164200
  59.7143550  56.9028380  82.9385250  60.0560360  57.7470430  82.6439120
  58.7759360  57.0512120  83.0550590  55.7882510  65.9894260  73.8044330
  55.4110490  66.4781360  73.0729230  56.0455580  66.6619540  74.4350860
  63.3971440  54.3910650  79.2629840  63.7046420  53.8357540  78.5465340
  62.4672140  54.5255110  79.0802830  70.2431920  66.8294160  76.6427470
  70.1328250  65.8868490  76.7676890  70.2400170  67.1909800  77.5290230
  68.3471940  65.0107780  82.8819910  68.7640730  64.7967890  82.0473370
  69.0711760  65.2680570  83.4528530  65.7852200  62.4559480  75.9989960
  64.8581480  62.3896860  76.2278430  65.9377020  63.3939610  75.8845200
  65.7721280  58.7276480  72.9957120  64.8324950  58.8890440  73.0809580
  66.0904540  59.4462160  72.4493110  69.8149490  64.0179780  76.5025210
  69.1961910  63.6799330  75.8551510  69.7973940  63.3739540  77.2104400
  61.3908840  62.9824220  78.7809690  60.9865840  62.2701470  78.2855590
  61.4771960  62.6377460  79.6697730  61.8590540  66.6691780  80.9448900
  61.5618830  66.0637250  80.2656680  62.8090360  66.7069090  80.8338260
  60.1037460  59.7567430  82.5608730  60.6552050  59.8662770  81.7861980
  60.6180970  60.1305030  83.2763960  67.9914190  63.2566590  73.5097960
  68.4307470  62.4189020  73.3635780  68.7042610  63.8895990  73.5962100
  58.0913470  61.8769200  76.2816340  57.9711070  62.6031290  75.6697610
  57.7814360  61.1072110  75.8044250  55.7298840  65.0484340  82.0884980
  55.8079260  65.1833110  81.1440700  56.3440520  64.3400230  82.2813100
  56.9746470  66.7484530  78.4991160  56.5674550  66.8899120  77.6444760
  57.8659480  66.4644690  78.2962370  60.5577130  55.2204270  79.6640010
  60.1145280  56.0013810  79.3324530  61.1162120  55.5434160  80.3710950
  63.6735950  54.8414970  74.5445840  63.0490130  54.8374840  75.2699150
  63.5866070  53.9745930  74.1481810  62.5953030  55.7651600  81.5229610
  62.8925360  56.6714430  81.4421630  63.1438590  55.2770380  80.9089180
  60.3491350  60.3437840  77.3921260  60.1232270  60.1275010  78.2967880
  59.5683880  60.7766300  77.0467230  67.5789110  60.3501210  75.9911910
  66.9798000  61.0737010  75.8075530  68.1268720  60.2877990  75.2088360
  66.1853980  58.9864750  78.0215190  66.5783550  59.3036950  77.2083880
  66.5470830  58.1076630  78.1359710  55.2218150  55.5765550  80.2445390
  54.9331200  56.1468410  80.9570370  55.9663910  55.0970000  80.6076620
  55.4088380  59.5185670  71.4548110  55.3263050  60.4616430  71.5963100
  55.0571440  59.3760580  70.5760460  66.7709120  61.5770500  82.1165970
  66.0390240  62.0857310  82.4656070  66.3733460  60.7600480  81.8154750
  63.2086510  58.2524700  80.5218460  63.2122570  57.8114650  79.6723000
  64.1037630  58.5742030  80.6290280  59.0588890  58.1351190  79.4812670
  58.7188940  58.6126420  80.2379720  58.2966210  57.6816310  79.1213770
  63.2706660  59.2536780  73.5125220  63.3919480  59.2123260  74.4611040
  62.8855170  60.1160930  73.3571950  67.2335030  57.0304180  81.5288910
  67.2507770  57.4812830  82.3730760  66.9850610  56.1309820  81.7422350
  62.2828160  61.5637920  72.9108520  61.7145060  61.1156170  72.2844430
  62.9917160  61.9230700  72.3773670  63.5094480  62.3126480  82.2683870
  63.8764610  61.8385050  83.0145210  63.3199540  63.1868050  82.6092210
  56.3734970  57.0570170  78.3977340  56.0881890  56.6925840  79.2355960
  56.3113830  56.3250630  77.7840480  59.8275640  65.5596110  75.1834930
  59.0537900  65.0193730  75.0233650  60.5570270  65.0402720  74.8452690
  66.0473560  55.9499430  75.1190710  65.2338170  55.4512600  75.0436020
  65.8535510  56.7897680  74.7027060  68.7621950  60.3219080  73.4152870
  69.6501570  60.6336310  73.2404210  68.7327040  59.4491330  73.0233450
  59.8713040  65.2276490  78.8213740  60.3891710  64.4244750  78.7670630
  59.4197060  65.1655630  79.6630570  64.7582540  66.4942770  74.0941040
  65.0998240  67.2385000  73.5984360  63.9295250  66.8073890  74.4565870
  67.6409950  65.8158610  79.4586550  67.9933770  65.2186740  78.7987920
  66.7572280  65.4902840  79.6294800  63.7273230  66.5756300  76.8656960
  64.4144360  67.1225510  77.2464550  62.9405650  67.1197030  76.9006570
  55.8665630  62.1929120  72.3574040  56.7360480  62.4753920  72.6409960
  55.3755950  63.0064990  72.2422850  63.0300440  63.5802330  76.4782320
  63.4863220  64.3907580  76.7042510  62.6788650  63.2625470  77.3100810
  58.9312220  53.9239980  76.9504840  58.8026850  53.9157880  77.8989760
  58.1074240  54.2623070  76.5995850  70.4520850  67.3789640  72.1491210
  70.2258430  66.6620080  72.7415850  70.0617050  67.1302080  71.3112960
  70.0337100  65.2961580  73.8105370  69.7458800  65.7574270  74.5983250
  70.8289270  64.8359350  74.0789590  57.8512140  64.0102590  74.4856100
  57.2440090  64.7501490  74.4951400  58.3261490  64.1001950  73.6594300
  70.7906960  57.1310350  74.9700550  70.1620120  57.2356020  74.2558780
  70.2958880  57.3507130  75.7594430  62.7590990  59.4096300  76.3858430
  62.0507140  59.8782640  76.8272040  63.0435470  58.7518310  77.0203620
  66.7906420  56.1346960  77.8254220  66.6674200  56.1533090  76.8763730
  67.7390980  56.1825900  77.9452620  60.9626010  57.7181380  73.7609140
  61.8116540  58.1551530  73.6949330  60.5957280  58.0301640  74.5881200
  69.8835790  62.2894140  78.6740710  68.9425930  62.3044370  78.8488400
  70.1979860  61.5030100  79.1201010  59.8617430  63.9713740  72.2344670
  60.6280700  63.8595100  72.7970100  59.9392120  63.2751710  71.5821440
  58.5564190  61.4038810  72.9177560  58.6367780  60.4566320  73.0294960
  59.4483940  61.7345690  73.0238220  62.9858610  65.9467920  71.7080020
  62.8809250  65.3320270  72.4341400  62.8182830  65.4233810  70.9243030
  66.2261340  65.0087950  72.3122010  65.6771440  65.4557250  72.9564750
  66.8480600  64.5037200  72.8359680  61.8936460  63.9678870  74.2087310
  62.3152880  63.8018740  75.0518700  62.0187300  63.1579100  73.7142450
  64.4064100  62.9916480  71.4564410  64.9269760  62.2765500  71.0905560
  65.0532500  63.6302350  71.7564920  60.7895360  60.0412100  71.1545470
  60.5884420  59.1779460  71.5158810  60.6187410  59.9545460  70.2167070
  68.2683670  54.8520330  73.6832350  68.5485960  54.0088230  74.0391770
  67.4949400  55.0843440  74.1971100  59.5878160  57.1412720  71.1423350
  59.8904060  57.1480150  70.2342500  60.3272750  56.7910580  71.6391010
  62.8063090  56.0847340  72.1279550  62.4585090  55.4071330  71.5482000
  63.0075860  55.6236850  72.9422940  58.6108290  66.4455140  71.9753150
  59.0483160  66.9884810  72.6310730  59.0956020  65.6202090  71.9849490
  60.4216010  67.5653180  77.0875380  60.1211550  67.4418150  77.9879290
  60.3153500  66.7061770  76.6791110  56.1468730  62.6134990  78.5243920
  55.4917570  62.3446630  77.8803620  56.9846680  62.5039470  78.0745900
  69.0959170  57.4076280  72.7462410  69.5144050  57.2207260  71.9059070
  68.7895230  56.5555330  73.0565340  55.3606810  59.8233920  74.4669250
  54.4570890  60.0864120  74.2920910  55.8447430  60.0945090  73.6869210
  57.9034020  58.8799460  72.3763630  58.6125720  58.4582680  71.8910910
  57.1873960  58.9474690  71.7446980  57.5508180  54.9338790  71.4166280
  58.2736310  55.4747730  71.7347500  57.8232700  54.6602210  70.5407820
  57.2400370  54.1844980  81.3188900  57.8876560  53.6342360  80.8784060
  57.6602210  54.4388130  82.1404710  65.6314610  54.6684570  82.4888130
  64.8486400  55.1430070  82.7684890  65.3377540  53.7639400  82.3801310
  70.1835680  55.3707670  80.5337220  70.6243770  55.3152770  79.6858820
  69.9143270  56.2865680  80.6047400  56.9755020  54.9732050  75.0101850
  57.7334380  55.0860930  74.4365880  56.5132190  55.8101250  74.9645280
  63.5168830  57.0871320  78.0004160  62.7043340  56.7128210  77.6600040
  64.0210470  56.3316400  78.3025350  68.0193810  53.7513770  79.2387230
  68.6223180  54.3233980  79.7135750  67.2786800  54.3153210  79.0161130
  59.3480170  55.4996100  73.5503820  59.8772930  54.7125900  73.4211770
  59.9808490  56.1787290  73.7839350  61.5418010  55.2371240  76.6049210
  60.9120750  54.5358550  76.7719340  61.0023150  55.9975370  76.3882370
  67.1747180  61.9501270  59.9816910  67.0941230  61.0355880  59.7108620
  66.7611600  62.4468340  59.2756620  65.3065220  63.7280290  61.8626180
  64.5307320  63.2480730  62.1524750  65.9578150  63.0485940  61.6882340
  59.3231050  64.0400100  62.7401940  58.4915930  63.7848810  63.1398450
  59.9312030  64.1110870  63.4759860  57.7323000  59.0001990  56.5244330
  56.8439700  59.3417960  56.4224210  58.0164190  58.8002310  55.6325160
  55.6956010  61.6007640  62.4084030  56.2672120  60.8329840  62.4087670
  55.6957550  61.8996400  61.4990640  64.7474210  66.4037480  61.8696340
  64.6782490  65.4627420  61.7085470  65.5094070  66.4938890  62.4418910
  56.9380880  57.0092000  64.1952960  56.7583720  56.1117750  64.4755720
  56.5360960  57.5563870  64.8699910  65.7779380  59.2107860  62.0965270
  66.1544200  58.3379740  61.9838940  65.6798890  59.5466560  61.2055710
  59.9084390  57.5833490  57.5582710  60.0151140  58.4837220  57.8651470
  58.9976750  57.5351460  57.2677360  69.5603500  56.7058300  59.0293610
  70.3813120  56.2154870  59.0719090  69.5937580  57.2955960  59.7825450
  57.5567550  59.5052500  62.8035300  58.2377660  59.7690870  63.4222700
  57.2415600  58.6653370  63.1373310  61.7492120  60.5519860  61.8907890
  62.2570340  61.0500830  62.5312910  62.2805360  59.7755060  61.7147250
  60.0328220  55.1918420  66.1571310  60.0346660  55.7090810  65.3517210
  59.2032530  54.7148600  66.1341240  66.4199310  65.3037730  57.6561210
  65.8016580  65.7687180  57.0923930  66.9322560  65.9965210  58.0730720
  61.2831070  64.8313600  64.3344810  60.9500450  65.4582520  64.9765880
  61.4597750  65.3575480  63.5546480  69.7964980  58.6458680  61.8021150
  69.0920550  58.9343570  62.3824260  70.1577140  59.4558790  61.4420710
  59.7143550  56.9028380  64.1641760  60.0560360  57.7470430  63.8695630
  58.7759360  57.0512120  64.2807100  60.4950170  66.7994400  66.1493990
  61.1124170  67.4745480  65.8678440  59.6343290  67.2082380  66.0581490
  55.7882510  65.9894260  55.0300840  55.4110490  66.4781360  54.2985740
  56.0455580  66.6619540  55.6607370  63.3971440  54.3910650  60.4886350
  63.7046420  53.8357540  59.7721850  62.4672140  54.5255110  60.3059340
  70.2431920  66.8294160  57.8683980  70.1328250  65.8868490  57.9933400
  70.2400170  67.1909800  58.7546740  68.3471940  65.0107780  64.1076420
  68.7640730  64.7967890  63.2729880  69.0711760  65.2680570  64.6785040
  65.7852200  62.4559480  57.2246470  64.8581480  62.3896860  57.4534940
  65.9377020  63.3939610  57.1101710  65.7721280  58.7276480  54.2213630
  64.8324950  58.8890440  54.3066090  66.0904540  59.4462160  53.6749620
  69.8149490  64.0179780  57.7281720  69.1961910  63.6799330  57.0808020
  69.7973940  63.3739540  58.4360910  69.2576050  60.1964320  65.1447530
  68.8447230  61.0218030  65.3987520  68.5252000  59.6109360  64.9523890
  61.3908840  62.9824220  60.0066200  60.9865840  62.2701470  59.5112100
  61.4771960  62.6377460  60.8954240  61.8590540  66.6691780  62.1705410
  61.5618830  66.0637250  61.4913190  62.8090360  66.7069090  62.0594770
  60.1037460  59.7567430  63.7865240  60.6552050  59.8662770  63.0118490
  60.6180970  60.1305030  64.5020470  60.9508970  66.4073470  68.8213210
  60.0537500  66.6313440  69.0686610  60.9761840  66.5308410  67.8724610
  67.9914190  63.2566590  54.7354470  68.4307470  62.4189020  54.5892290
  68.7042610  63.8895990  54.8218610  59.7780190  63.2786790  67.3970580
  59.6387960  64.1509590  67.7657980  58.8961550  62.9359600  67.2518520
  58.0913470  61.8769200  57.5072850  57.9711070  62.6031290  56.8954120
  57.7814360  61.1072110  57.0300760  55.7298840  65.0484340  63.3141490
  55.8079260  65.1833110  62.3697210  56.3440520  64.3400230  63.5069610
  56.9746470  66.7484530  59.7247670  56.5674550  66.8899120  58.8701270
  57.8659480  66.4644690  59.5218880  55.7858360  66.0898510  65.8535950
  55.9489400  65.6203870  65.0355320  56.2510810  65.5822070  66.5184790
  60.5577130  55.2204270  60.8896520  60.1145280  56.0013810  60.5581040
  61.1162120  55.5434160  61.5967460  64.8446940  58.0872790  66.4931840
  64.3826310  58.2955810  67.3051780  64.4425050  57.2732140  66.1902510
  69.8451450  59.3081740  67.6228500  68.9945040  59.0087490  67.9437570
  69.6853240  59.5523750  66.7112320  66.9401160  60.8083490  69.7227290
  67.2654570  59.9747240  69.3829520  67.7281490  61.3312010  69.8705620
  63.6735950  54.8414970  55.7702350  63.0490130  54.8374840  56.4955660
  63.5866070  53.9745930  55.3738320  62.5953030  55.7651600  62.7486120
  62.8925360  56.6714430  62.6678140  63.1438590  55.2770380  62.1345690
  60.3491350  60.3437840  58.6177770  60.1232270  60.1275010  59.5224390
  59.5683880  60.7766300  58.2723740  67.5789110  60.3501210  57.2168420
  66.9798000  61.0737010  57.0332040  68.1268720  60.2877990  56.4344870
  62.7890560  61.2423420  69.2838040  62.6934160  60.3018150  69.1338440
  63.6322540  61.4638490  68.8886110  66.1853980  58.9864750  59.2471700
  66.5783550  59.3036950  58.4340390  66.5470830  58.1076630  59.3616220
  57.9201100  57.6537090  67.4371820  57.5264490  58.5012300  67.6444600
  57.2319500  57.0163460  67.6280460  64.4946150  57.7372060  70.5068560
  63.8044470  57.5444260  71.1414650  65.2378450  58.0206700  71.0392860
  55.2218150  55.5765550  61.4701900  54.9331200  56.1468410  62.1826880
  55.9663910  55.0970000  61.8333130  55.4088380  59.5185670  52.6804620
  55.3263050  60.4616430  52.8219610  55.0571440  59.3760580  51.8016970
  66.7709120  61.5770500  63.3422480  66.0390240  62.0857310  63.6912580
  66.3733460  60.7600480  63.0411260  63.2086510  58.2524700  61.7474970
  63.2122570  57.8114650  60.8979510  64.1037630  58.5742030  61.8546790
  59.0588890  58.1351190  60.7069180  58.7188940  58.6126420  61.4636230
  58.2966210  57.6816310  60.3470280  63.2706660  59.2536780  54.7381730
  63.3919480  59.2123260  55.6867550  62.8855170  60.1160930  54.5828460
  67.2335030  57.0304180  62.7545420  67.2507770  57.4812830  63.5987270
  66.9850610  56.1309820  62.9678860  62.2828160  61.5637920  54.1365030
  61.7145060  61.1156170  53.5100940  62.9917160  61.9230700  53.6030180
  70.6605780  54.4436360  68.5931800  70.9851550  53.7126020  69.1189780
  70.6962290  54.1250000  67.6912790  57.3597340  65.4649940  68.0131760
  56.9752130  64.8243610  68.6114720  57.6709530  66.1686060  68.5826490
  63.5094480  62.3126480  63.4940380  63.8764610  61.8385050  64.2401720
  63.3199540  63.1868050  63.8348720  56.3734970  57.0570170  59.6233850
  56.0881890  56.6925840  60.4612470  56.3113830  56.3250630  59.0096990
  61.2993850  61.3535120  65.8124590  60.9950920  62.2327100  66.0374950
  62.2540310  61.4134910  65.8482030  59.8275640  65.5596110  56.4091440
  59.0537900  65.0193730  56.2490160  60.5570270  65.0402720  56.0709200
  66.0473560  55.9499430  56.3447220  65.2338170  55.4512600  56.2692530
  65.8535510  56.7897680  55.9283570  65.9682420  64.6270530  68.0886830
  65.9019730  63.7066200  67.8344420  65.3387560  64.7245970  68.8031470
  68.7621950  60.3219080  54.6409380  69.6501570  60.6336310  54.4660720
  68.7327040  59.4491330  54.2489960  59.8713040  65.2276490  60.0470250
  60.3891710  64.4244750  59.9927140  59.4197060  65.1655630  60.8887080
  64.7582540  66.4942770  55.3197550  65.0998240  67.2385000  54.8240870
  63.9295250  66.8073890  55.6822380  57.3557580  62.1937860  66.9595950
  56.9972520  62.8591710  67.5469290  57.0612140  61.3621410  67.3308570
  60.5570700  62.6522100  69.8435500  60.2570840  62.7979280  68.9463320
  61.3281940  62.0927390  69.7508890  65.8999150  67.4491100  67.8390630
  65.9143690  66.5172060  67.6209540  65.1924250  67.5350860  68.4780400
  67.6409950  65.8158610  60.6843060  67.9933770  65.2186740  60.0244430
  66.7572280  65.4902840  60.8551310  63.7273230  66.5756300  58.0913470
  64.4144360  67.1225510  58.4721060  62.9405650  67.1197030  58.1263080
  55.8665630  62.1929120  53.5830550  56.7360480  62.4753920  53.8666470
  55.3755950  63.0064990  53.4679360  63.0300440  63.5802330  57.7038830
  63.4863220  64.3907580  57.9299020  62.6788650  63.2625470  58.5357320
  58.9312220  53.9239980  58.1761350  58.8026850  53.9157880  59.1246270
  58.1074240  54.2623070  57.8252360  70.4520850  67.3789640  53.3747720
  70.2258430  66.6620080  53.9672360  70.0617050  67.1302080  52.5369470
  55.9306150  55.6831100  67.6368050  55.2164670  55.8828020  68.2420660
  56.3501190  54.9070670  68.0082850  70.0337100  65.2961580  55.0361880
  69.7458800  65.7574270  55.8239760  70.8289270  64.8359350  55.3046100
  57.8512140  64.0102590  55.7112610  57.2440090  64.7501490  55.7207910
  58.3261490  64.1001950  54.8850810  67.4244930  58.1753410  65.3869500
  67.7925750  57.3548620  65.7149070  66.5643130  58.2355300  65.8025150
  70.7906960  57.1310350  56.1957060  70.1620120  57.2356020  55.4815290
  70.2958880  57.3507130  56.9850940  62.7590990  59.4096300  57.6114940
  62.0507140  59.8782640  58.0528550  63.0435470  58.7518310  58.2460130
  64.3846920  60.8293000  65.6107470  64.8832170  61.3038820  66.2759320
  64.5269870  59.9056520  65.8177500  66.7906420  56.1346960  59.0510730
  66.6674200  56.1533090  58.1020240  67.7390980  56.1825900  59.1709130
  60.9626010  57.7181380  54.9865650  61.8116540  58.1551530  54.9205840
  60.5957280  58.0301640  55.8137710  69.8835790  62.2894140  59.8997220
  68.9425930  62.3044370  60.0744910  70.1979860  61.5030100  60.3457520
  59.8617430  63.9713740  53.4601180  60.6280700  63.8595100  54.0226610
  59.9392120  63.2751710  52.8077950  58.5564190  61.4038810  54.1434070
  58.6367780  60.4566320  54.2551470  59.4483940  61.7345690  54.2494730
  67.2001810  66.8460140  70.3829600  66.5939970  66.8691740  69.6425350
  66.8955920  66.1143180  70.9196850  56.0834990  63.2253730  69.3790240
  56.5874010  62.6461010  69.9506470  55.3442410  63.5093960  69.9166610
  62.9858610  65.9467920  52.9336530  62.8809250  65.3320270  53.6597910
  62.8182830  65.4233810  52.1499540  63.1372930  64.6324720  68.9125760
  62.3718600  65.2009720  68.8280430  63.3188890  64.3400930  68.0193990
  66.2261340  65.0087950  53.5378520  65.6771440  65.4557250  54.1821260
  66.8480600  64.5037200  54.0616190  70.2796280  66.3630050  69.4700780
  71.0205750  66.7005810  68.9668240  69.5168960  66.5322110  68.9170550
  58.1158070  61.3683320  70.2740310  58.1563410  61.0697190  71.1825540
  58.9703570  61.7690930  70.1147830  61.8936460  63.9678870  55.4343820
  62.3152880  63.8018740  56.2775210  62.0187300  63.1579100  54.9398960
  60.0563880  59.9475420  68.2414800  59.5260340  59.4566370  67.6138140
  60.7251950  60.3759620  67.7072730  64.4064100  62.9916480  52.6820920
  64.9269760  62.2765500  52.3162070  65.0532500  63.6302350  52.9821430
  68.9541940  64.4144880  68.0055990  69.3682960  64.5689960  68.8546410
  68.0192940  64.5400100  68.1681770  69.4264110  61.7541040  70.0095140
  70.0084880  60.9993360  69.9215620  69.6025880  62.2848480  69.2326620
  60.5436180  56.9137790  68.3212090  60.4493050  56.2958540  67.5962960
  59.9633570  57.6404080  68.0942000  63.3097620  55.4711030  65.3539480
  62.8614920  55.4935290  64.5085030  62.6762820  55.0730050  65.9509780
  63.7157170  64.3665360  65.9751920  64.1345280  65.2098090  65.8028160
  62.7965800  64.5037400  65.7458700  66.0521070  62.0981540  67.3589760
  66.1717280  61.5022680  68.0984600  66.9115070  62.1351230  66.9391060
  68.3908970  62.6518730  65.9352270  67.8644190  63.1761350  65.3317410
  68.7340310  63.2846120  66.5662000  60.7895360  60.0412100  52.3801980
  60.5884420  59.1779460  52.7415320  60.6187410  59.9545460  51.4423580
  62.8189840  58.6402890  68.6165580  63.4089530  58.3318740  69.3043400
  62.0010080  58.1682640  68.7725480  67.6383270  58.2568700  68.8498600
  66.9498790  57.5950240  68.7848590  68.3589290  57.8106970  69.2947060
  68.2683670  54.8520330  54.9088860  68.5485960  54.0088230  55.2648280
  67.4949400  55.0843440  55.4227610  59.5878160  57.1412720  52.3679860
  59.8904060  57.1480150  51.4599010  60.3272750  56.7910580  52.8647520
  62.8063090  56.0847340  53.3536060  62.4585090  55.4071330  52.7738510
  63.0075860  55.6236850  54.1679450  58.6108290  66.4455140  53.2009660
  59.0483160  66.9884810  53.8567240  59.0956020  65.6202090  53.2106000
  60.4216010  67.5653180  58.3131890  60.1211550  67.4418150  59.2135800
  60.3153500  66.7061770  57.9047620  56.1468730  62.6134990  59.7500430
  55.4917570  62.3446630  59.1060130  56.9846680  62.5039470  59.3002410
  70.6358120  66.3283740  65.7765020  69.8217960  66.7580900  66.0390810
  71.0432320  66.9402150  65.1634070  69.0959170  57.4076280  53.9718920
  69.5144050  57.2207260  53.1315580  68.7895230  56.5555330  54.2821850
  57.1844660  62.9987560  64.2903770  57.5517700  62.9114960  65.1699790
  56.6155480  62.2354110  64.1910630  56.7360660  59.9096650  68.1962190
  55.8416710  59.8763410  68.5355900  57.2758210  60.1083440  68.9613440
  55.3606810  59.8233920  55.6925760  54.4570890  60.0864120  55.5177420
  55.8447430  60.0945090  54.9125720  57.9034020  58.8799460  53.6020140
  58.6125720  58.4582680  53.1167420  57.1873960  58.9474690  52.9703490
  57.5508180  54.9338790  52.6422790  58.2736310  55.4747730  52.9604010
  57.8232700  54.6602210  51.7664330  57.2400370  54.1844980  62.5445410
  57.8876560  53.6342360  62.1040570  57.6602210  54.4388130  63.3661220
  56.9932370  54.3400650  65.2870730  56.6447190  54.7964470  66.0528910
  56.6620070  53.4457780  65.3693160  64.5057190  55.5312530  68.8090150
  64.4446080  56.1234360  69.5585560  65.4457570  55.4238490  68.6640410
  67.1431750  55.1882590  68.4482440  67.7572160  55.5061880  67.7863520
  67.6881310  54.7031180  69.0678300  57.6653010  53.8676850  68.5621500
  58.2136000  53.6864900  67.7987610  57.7308320  53.0770960  69.0977810
  67.8839790  53.7514730  64.7751730  67.0099630  54.0849840  64.5724660
  67.7750540  53.2787910  65.6003600  68.7911770  55.9585600  66.1593450
  68.4625130  55.1437360  65.7795180  69.7394070  55.9155410  66.0359140
  65.6314610  54.6684570  63.7144640  64.8486400  55.1430070  63.9941400
  65.3377540  53.7639400  63.6057820  70.1835680  55.3707670  61.7593730
  70.6243770  55.3152770  60.9115330  69.9143270  56.2865680  61.8303910
  56.9755020  54.9732050  56.2358360  57.7334380  55.0860930  55.6622390
  56.5132190  55.8101250  56.1901790  63.5168830  57.0871320  59.2260670
  62.7043340  56.7128210  58.8856550  64.0210470  56.3316400  59.5281860
  68.0193810  53.7513770  60.4643740  68.6223180  54.3233980  60.9392260
  67.2786800  54.3153210  60.2417640  59.3480170  55.4996100  54.7760330
  59.8772930  54.7125900  54.6468280  59.9808490  56.1787290  55.0095860
  61.5418010  55.2371240  57.8305720  60.9120750  54.5358550  57.9975850
  61.0023150  55.9975370  57.6138880  61.6673570  54.5155220  70.2658210
  61.3857840  55.0188820  69.5019030  62.0493270  53.7176970  69.9000340
  68.2689030  53.9308800  70.8438680  68.1554480  54.2503410  71.7390200
  69.0858770  54.3321310  70.5475960  67.1747180  61.9501270  41.2073420
  67.0941230  61.0355880  40.9365130  66.7611600  62.4468340  40.5013130
  65.3065220  63.7280290  43.0882690  64.5307320  63.2480730  43.3781260
  65.9578150  63.0485940  42.9138850  59.3231050  64.0400100  43.9658450
  58.4915930  63.7848810  44.3654960  59.9312030  64.1110870  44.7016370
  57.7323000  59.0001990  37.7500840  56.8439700  59.3417960  37.6480720
  58.0164190  58.8002310  36.8581670  55.6956010  61.6007640  43.6340540
  56.2672120  60.8329840  43.6344180  55.6957550  61.8996400  42.7247150
  64.7474210  66.4037480  43.0952850  64.6782490  65.4627420  42.9341980
  65.5094070  66.4938890  43.6675420  56.9380880  57.0092000  45.4209470
  56.7583720  56.1117750  45.7012230  56.5360960  57.5563870  46.0956420
  65.7779380  59.2107860  43.3221780  66.1544200  58.3379740  43.2095450
  65.6798890  59.5466560  42.4312220  59.9084390  57.5833490  38.7839220
  60.0151140  58.4837220  39.0907980  58.9976750  57.5351460  38.4933870
  69.5603500  56.7058300  40.2550120  70.3813120  56.2154870  40.2975600
  69.5937580  57.2955960  41.0081960  57.5567550  59.5052500  44.0291810
  58.2377660  59.7690870  44.6479210  57.2415600  58.6653370  44.3629820
  61.7492120  60.5519860  43.1164400  62.2570340  61.0500830  43.7569420
  62.2805360  59.7755060  42.9403760  60.0328220  55.1918420  47.3827820
  60.0346660  55.7090810  46.5773720  59.2032530  54.7148600  47.3597750
  66.4199310  65.3037730  38.8817720  65.8016580  65.7687180  38.3180440
  66.9322560  65.9965210  39.2987230  61.2831070  64.8313600  45.5601320
  60.9500450  65.4582520  46.2022390  61.4597750  65.3575480  44.7802990
  69.7964980  58.6458680  43.0277660  69.0920550  58.9343570  43.6080770
  70.1577140  59.4558790  42.6677220  59.7143550  56.9028380  45.3898270
  60.0560360  57.7470430  45.0952140  58.7759360  57.0512120  45.5063610
  60.4950170  66.7994400  47.3750500  61.1124170  67.4745480  47.0934950
  59.6343290  67.2082380  47.2838000  55.7882510  65.9894260  36.2557350
  55.4110490  66.4781360  35.5242250  56.0455580  66.6619540  36.8863880
  63.3971440  54.3910650  41.7142860  63.7046420  53.8357540  40.9978360
  62.4672140  54.5255110  41.5315850  70.2431920  66.8294160  39.0940490
  70.1328250  65.8868490  39.2189910  70.2400170  67.1909800  39.9803250
  68.3471940  65.0107780  45.3332930  68.7640730  64.7967890  44.4986390
  69.0711760  65.2680570  45.9041550  65.7852200  62.4559480  38.4502980
  64.8581480  62.3896860  38.6791450  65.9377020  63.3939610  38.3358220
  65.7721280  58.7276480  35.4470140  64.8324950  58.8890440  35.5322600
  66.0904540  59.4462160  34.9006130  69.8149490  64.0179780  38.9538230
  69.1961910  63.6799330  38.3064530  69.7973940  63.3739540  39.6617420
  69.2576050  60.1964320  46.3704040  68.8447230  61.0218030  46.6244030
  68.5252000  59.6109360  46.1780400  61.3908840  62.9824220  41.2322710
  60.9865840  62.2701470  40.7368610  61.4771960  62.6377460  42.1210750
  61.8590540  66.6691780  43.3961920  61.5618830  66.0637250  42.7169700
  62.8090360  66.7069090  43.2851280  60.1037460  59.7567430  45.0121750
  60.6552050  59.8662770  44.2375000  60.6180970  60.1305030  45.7276980
  60.9508970  66.4073470  50.0469720  60.0537500  66.6313440  50.2943120
  60.9761840  66.5308410  49.0981120  67.9914190  63.2566590  35.9610980
  68.4307470  62.4189020  35.8148800  68.7042610  63.8895990  36.0475120
  59.7780190  63.2786790  48.6227090  59.6387960  64.1509590  48.9914490
  58.8961550  62.9359600  48.4775030  58.0913470  61.8769200  38.7329360
  57.9711070  62.6031290  38.1210630  57.7814360  61.1072110  38.2557270
  55.7298840  65.0484340  44.5398000  55.8079260  65.1833110  43.5953720
  56.3440520  64.3400230  44.7326120  56.9746470  66.7484530  40.9504180
  56.5674550  66.8899120  40.0957780  57.8659480  66.4644690  40.7475390
  55.7858360  66.0898510  47.0792460  55.9489400  65.6203870  46.2611830
  56.2510810  65.5822070  47.7441300  60.5577130  55.2204270  42.1153030
  60.1145280  56.0013810  41.7837550  61.1162120  55.5434160  42.8223970
  64.8446940  58.0872790  47.7188350  64.3826310  58.2955810  48.5308290
  64.4425050  57.2732140  47.4159020  69.8451450  59.3081740  48.8485010
  68.9945040  59.0087490  49.1694080  69.6853240  59.5523750  47.9368830
  66.9401160  60.8083490  50.9483800  67.2654570  59.9747240  50.6086030
  67.7281490  61.3312010  51.0962130  63.6735950  54.8414970  36.9958860
  63.0490130  54.8374840  37.7212170  63.5866070  53.9745930  36.5994830
  62.5953030  55.7651600  43.9742630  62.8925360  56.6714430  43.8934650
  63.1438590  55.2770380  43.3602200  60.3491350  60.3437840  39.8434280
  60.1232270  60.1275010  40.7480900  59.5683880  60.7766300  39.4980250
  67.5789110  60.3501210  38.4424930  66.9798000  61.0737010  38.2588550
  68.1268720  60.2877990  37.6601380  62.7890560  61.2423420  50.5094550
  62.6934160  60.3018150  50.3594950  63.6322540  61.4638490  50.1142620
  66.1853980  58.9864750  40.4728210  66.5783550  59.3036950  39.6596900
  66.5470830  58.1076630  40.5872730  57.9201100  57.6537090  48.6628330
  57.5264490  58.5012300  48.8701110  57.2319500  57.0163460  48.8536970
  64.4946150  57.7372060  51.7325070  63.8044470  57.5444260  52.3671160
  65.2378450  58.0206700  52.2649370  55.2218150  55.5765550  42.6958410
  54.9331200  56.1468410  43.4083390  55.9663910  55.0970000  43.0589640
  55.4088380  59.5185670  33.9061130  55.3263050  60.4616430  34.0476120
  55.0571440  59.3760580  33.0273480  66.7709120  61.5770500  44.5678990
  66.0390240  62.0857310  44.9169090  66.3733460  60.7600480  44.2667770
  63.2086510  58.2524700  42.9731480  63.2122570  57.8114650  42.1236020
  64.1037630  58.5742030  43.0803300  59.0588890  58.1351190  41.9325690
  58.7188940  58.6126420  42.6892740  58.2966210  57.6816310  41.5726790
  63.2706660  59.2536780  35.9638240  63.3919480  59.2123260  36.9124060
  62.8855170  60.1160930  35.8084970  67.2335030  57.0304180  43.9801930
  67.2507770  57.4812830  44.8243780  66.9850610  56.1309820  44.1935370
  62.2828160  61.5637920  35.3621540  61.7145060  61.1156170  34.7357450
  62.9917160  61.9230700  34.8286690  70.6605780  54.4436360  49.8188310
  70.9851550  53.7126020  50.3446290  70.6962290  54.1250000  48.9169300
  57.3597340  65.4649940  49.2388270  56.9752130  64.8243610  49.8371230
  57.6709530  66.1686060  49.8083000  63.5094480  62.3126480  44.7196890
  63.8764610  61.8385050  45.4658230  63.3199540  63.1868050  45.0605230
  56.3734970  57.0570170  40.8490360  56.0881890  56.6925840  41.6868980
  56.3113830  56.3250630  40.2353500  61.2993850  61.3535120  47.0381100
  60.9950920  62.2327100  47.2631460  62.2540310  61.4134910  47.0738540
  59.8275640  65.5596110  37.6347950  59.0537900  65.0193730  37.4746670
  60.5570270  65.0402720  37.2965710  66.0473560  55.9499430  37.5703730
  65.2338170  55.4512600  37.4949040  65.8535510  56.7897680  37.1540080
  65.9682420  64.6270530  49.3143340  65.9019730  63.7066200  49.0600930
  65.3387560  64.7245970  50.0287980  68.7621950  60.3219080  35.8665890
  69.6501570  60.6336310  35.6917230  68.7327040  59.4491330  35.4746470
  59.8713040  65.2276490  41.2726760  60.3891710  64.4244750  41.2183650
  59.4197060  65.1655630  42.1143590  64.7582540  66.4942770  36.5454060
  65.0998240  67.2385000  36.0497380  63.9295250  66.8073890  36.9078890
  57.3557580  62.1937860  48.1852460  56.9972520  62.8591710  48.7725800
  57.0612140  61.3621410  48.5565080  60.5570700  62.6522100  51.0692010
  60.2570840  62.7979280  50.1719830  61.3281940  62.0927390  50.9765400
  65.8999150  67.4491100  49.0647140  65.9143690  66.5172060  48.8466050
  65.1924250  67.5350860  49.7036910  67.6409950  65.8158610  41.9099570
  67.9933770  65.2186740  41.2500940  66.7572280  65.4902840  42.0807820
  63.7273230  66.5756300  39.3169980  64.4144360  67.1225510  39.6977570
  62.9405650  67.1197030  39.3519590  55.8665630  62.1929120  34.8087060
  56.7360480  62.4753920  35.0922980  55.3755950  63.0064990  34.6935870
  63.0300440  63.5802330  38.9295340  63.4863220  64.3907580  39.1555530
  62.6788650  63.2625470  39.7613830  58.9312220  53.9239980  39.4017860
  58.8026850  53.9157880  40.3502780  58.1074240  54.2623070  39.0508870
  70.4520850  67.3789640  34.6004230  70.2258430  66.6620080  35.1928870
  70.0617050  67.1302080  33.7625980  55.9306150  55.6831100  48.8624560
  55.2164670  55.8828020  49.4677170  56.3501190  54.9070670  49.2339360
  70.0337100  65.2961580  36.2618390  69.7458800  65.7574270  37.0496270
  70.8289270  64.8359350  36.5302610  57.8512140  64.0102590  36.9369120
  57.2440090  64.7501490  36.9464420  58.3261490  64.1001950  36.1107320
  67.4244930  58.1753410  46.6126010  67.7925750  57.3548620  46.9405580
  66.5643130  58.2355300  47.0281660  70.7906960  57.1310350  37.4213570
  70.1620120  57.2356020  36.7071800  70.2958880  57.3507130  38.2107450
  62.7590990  59.4096300  38.8371450  62.0507140  59.8782640  39.2785060
  63.0435470  58.7518310  39.4716640  64.3846920  60.8293000  46.8363980
  64.8832170  61.3038820  47.5015830  64.5269870  59.9056520  47.0434010
  66.7906420  56.1346960  40.2767240  66.6674200  56.1533090  39.3276750
  67.7390980  56.1825900  40.3965640  60.9626010  57.7181380  36.2122160
  61.8116540  58.1551530  36.1462350  60.5957280  58.0301640  37.0394220
  69.8835790  62.2894140  41.1253730  68.9425930  62.3044370  41.3001420
  70.1979860  61.5030100  41.5714030  59.8617430  63.9713740  34.6857690
  60.6280700  63.8595100  35.2483120  59.9392120  63.2751710  34.0334460
  58.5564190  61.4038810  35.3690580  58.6367780  60.4566320  35.4807980
  59.4483940  61.7345690  35.4751240  67.2001810  66.8460140  51.6086110
  66.5939970  66.8691740  50.8681860  66.8955920  66.1143180  52.1453360
  56.0834990  63.2253730  50.6046750  56.5874010  62.6461010  51.1762980
  55.3442410  63.5093960  51.1423120  62.9858610  65.9467920  34.1593040
  62.8809250  65.3320270  34.8854420  62.8182830  65.4233810  33.3756050
  63.1372930  64.6324720  50.1382270  62.3718600  65.2009720  50.0536940
  63.3188890  64.3400930  49.2450500  66.2261340  65.0087950  34.7635030
  65.6771440  65.4557250  35.4077770  66.8480600  64.5037200  35.2872700
  70.2796280  66.3630050  50.6957290  71.0205750  66.7005810  50.1924750
  69.5168960  66.5322110  50.1427060  58.1158070  61.3683320  51.4996820
  58.1563410  61.0697190  52.4082050  58.9703570  61.7690930  51.3404340
  61.8936460  63.9678870  36.6600330  62.3152880  63.8018740  37.5031720
  62.0187300  63.1579100  36.1655470  60.0563880  59.9475420  49.4671310
  59.5260340  59.4566370  48.8394650  60.7251950  60.3759620  48.9329240
  64.4064100  62.9916480  33.9077430  64.9269760  62.2765500  33.5418580
  65.0532500  63.6302350  34.2077940  68.9541940  64.4144880  49.2312500
  69.3682960  64.5689960  50.0802920  68.0192940  64.5400100  49.3938280
  69.4264110  61.7541040  51.2351650  70.0084880  60.9993360  51.1472130
  69.6025880  62.2848480  50.4583130  60.5436180  56.9137790  49.5468600
  60.4493050  56.2958540  48.8219470  59.9633570  57.6404080  49.3198510
  63.3097620  55.4711030  46.5795990  62.8614920  55.4935290  45.7341540
  62.6762820  55.0730050  47.1766290  63.7157170  64.3665360  47.2008430
  64.1345280  65.2098090  47.0284670  62.7965800  64.5037400  46.9715210
  66.0521070  62.0981540  48.5846270  66.1717280  61.5022680  49.3241110
  66.9115070  62.1351230  48.1647570  68.3908970  62.6518730  47.1608780
  67.8644190  63.1761350  46.5573920  68.7340310  63.2846120  47.7918510
  60.7895360  60.0412100  33.6058490  60.5884420  59.1779460  33.9671830
  60.6187410  59.9545460  32.6680090  62.8189840  58.6402890  49.8422090
  63.4089530  58.3318740  50.5299910  62.0010080  58.1682640  49.9981990
  67.6383270  58.2568700  50.0755110  66.9498790  57.5950240  50.0105100
  68.3589290  57.8106970  50.5203570  68.2683670  54.8520330  36.1345370
  68.5485960  54.0088230  36.4904790  67.4949400  55.0843440  36.6484120
  59.5878160  57.1412720  33.5936370  59.8904060  57.1480150  32.6855520
  60.3272750  56.7910580  34.0904030  62.8063090  56.0847340  34.5792570
  62.4585090  55.4071330  33.9995020  63.0075860  55.6236850  35.3935960
  58.6108290  66.4455140  34.4266170  59.0483160  66.9884810  35.0823750
  59.0956020  65.6202090  34.4362510  60.4216010  67.5653180  39.5388400
  60.1211550  67.4418150  40.4392310  60.3153500  66.7061770  39.1304130
  56.1468730  62.6134990  40.9756940  55.4917570  62.3446630  40.3316640
  56.9846680  62.5039470  40.5258920  70.6358120  66.3283740  47.0021530
  69.8217960  66.7580900  47.2647320  71.0432320  66.9402150  46.3890580
  69.0959170  57.4076280  35.1975430  69.5144050  57.2207260  34.3572090
  68.7895230  56.5555330  35.5078360  57.1844660  62.9987560  45.5160280
  57.5517700  62.9114960  46.3956300  56.6155480  62.2354110  45.4167140
  56.7360660  59.9096650  49.4218700  55.8416710  59.8763410  49.7612410
  57.2758210  60.1083440  50.1869950  55.3606810  59.8233920  36.9182270
  54.4570890  60.0864120  36.7433930  55.8447430  60.0945090  36.1382230
  57.9034020  58.8799460  34.8276650  58.6125720  58.4582680  34.3423930
  57.1873960  58.9474690  34.1960000  57.5508180  54.9338790  33.8679300
  58.2736310  55.4747730  34.1860520  57.8232700  54.6602210  32.9920840
  57.2400370  54.1844980  43.7701920  57.8876560  53.6342360  43.3297080
  57.6602210  54.4388130  44.5917730  56.9932370  54.3400650  46.5127240
  56.6447190  54.7964470  47.2785420  56.6620070  53.4457780  46.5949670
  64.5057190  55.5312530  50.0346660  64.4446080  56.1234360  50.7842070
  65.4457570  55.4238490  49.8896920  67.1431750  55.1882590  49.6738950
  67.7572160  55.5061880  49.0120030  67.6881310  54.7031180  50.2934810
  57.6653010  53.8676850  49.7878010  58.2136000  53.6864900  49.0244120
  57.7308320  53.0770960  50.3234320  67.8839790  53.7514730  46.0008240
  67.0099630  54.0849840  45.7981170  67.7750540  53.2787910  46.8260110
  68.7911770  55.9585600  47.3849960  68.4625130  55.1437360  47.0051690
  69.7394070  55.9155410  47.2615650  65.6314610  54.6684570  44.9401150
  64.8486400  55.1430070  45.2197910  65.3377540  53.7639400  44.8314330
  70.1835680  55.3707670  42.9850240  70.6243770  55.3152770  42.1371840
  69.9143270  56.2865680  43.0560420  56.9755020  54.9732050  37.4614870
  57.7334380  55.0860930  36.8878900  56.5132190  55.8101250  37.4158300
  63.5168830  57.0871320  40.4517180  62.7043340  56.7128210  40.1113060
  64.0210470  56.3316400  40.7538370  68.0193810  53.7513770  41.6900250
  68.6223180  54.3233980  42.1648770  67.2786800  54.3153210  41.4674150
  59.3480170  55.4996100  36.0016840  59.8772930  54.7125900  35.8724790
  59.9808490  56.1787290  36.2352370  61.5418010  55.2371240  39.0562230
  60.9120750  54.5358550  39.2232360  61.0023150  55.9975370  38.8395390
  61.6673570  54.5155220  51.4914720  61.3857840  55.0188820  50.7275540
  62.0493270  53.7176970  51.1256850  68.2689030  53.9308800  52.0695190
  68.1554480  54.2503410  52.9646710  69.0858770  54.3321310  51.7732470
  67.1747180  61.9501270  22.4329930  67.0941230  61.0355880  22.1621640
  66.7611600  62.4468340  21.7269640  65.3065220  63.7280290  24.3139200
  64.5307320  63.2480730  24.6037770  65.9578150  63.0485940  24.1395360
  59.3231050  64.0400100  25.1914960  58.4915930  63.7848810  25.5911470
  59.9312030  64.1110870  25.9272880  57.7323000  59.0001990  18.9757350
  56.8439700  59.3417960  18.8737230  58.0164190  58.8002310  18.0838180
  55.6956010  61.6007640  24.8597050  56.2672120  60.8329840  24.8600690
  55.6957550  61.8996400  23.9503660  64.7474210  66.4037480  24.3209360
  64.6782490  65.4627420  24.1598490  65.5094070  66.4938890  24.8931930
  56.9380880  57.0092000  26.6465980  56.7583720  56.1117750  26.9268740
  56.5360960  57.5563870  27.3212930  65.7779380  59.2107860  24.5478290
  66.1544200  58.3379740  24.4351960  65.6798890  59.5466560  23.6568730
  59.9084390  57.5833490  20.0095730  60.0151140  58.4837220  20.3164490
  58.9976750  57.5351460  19.7190380  69.5603500  56.7058300  21.4806630
  70.3813120  56.2154870  21.5232110  69.5937580  57.2955960  22.2338470
  57.5567550  59.5052500  25.2548320  58.2377660  59.7690870  25.8735720
  57.2415600  58.6653370  25.5886330  61.7492120  60.5519860  24.3420910
  62.2570340  61.0500830  24.9825930  62.2805360  59.7755060  24.1660270
  60.0328220  55.1918420  28.6084330  60.0346660  55.7090810  27.8030230
  59.2032530  54.7148600  28.5854260  66.4199310  65.3037730  20.1074230
  65.8016580  65.7687180  19.5436950  66.9322560  65.9965210  20.5243740
  61.2831070  64.8313600  26.7857830  60.9500450  65.4582520  27.4278900
  61.4597750  65.3575480  26.0059500  69.7964980  58.6458680  24.2534170
  69.0920550  58.9343570  24.8337280  70.1577140  59.4558790  23.8933730
  59.7143550  56.9028380  26.6154780  60.0560360  57.7470430  26.3208650
  58.7759360  57.0512120  26.7320120  60.4950170  66.7994400  28.6007010
  61.1124170  67.4745480  28.3191460  59.6343290  67.2082380  28.5094510
  55.7882510  65.9894260  17.4813860  55.4110490  66.4781360  16.7498760
  56.0455580  66.6619540  18.1120390  63.3971440  54.3910650  22.9399370
  63.7046420  53.8357540  22.2234870  62.4672140  54.5255110  22.7572360
  70.2431920  66.8294160  20.3197000  70.1328250  65.8868490  20.4446420
  70.2400170  67.1909800  21.2059760  68.3471940  65.0107780  26.5589440
  68.7640730  64.7967890  25.7242900  69.0711760  65.2680570  27.1298060
  65.7852200  62.4559480  19.6759490  64.8581480  62.3896860  19.9047960
  65.9377020  63.3939610  19.5614730  65.7721280  58.7276480  16.6726650
  64.8324950  58.8890440  16.7579110  66.0904540  59.4462160  16.1262640
  69.8149490  64.0179780  20.1794740  69.1961910  63.6799330  19.5321040
  69.7973940  63.3739540  20.8873930  69.2576050  60.1964320  27.5960550
  68.8447230  61.0218030  27.8500540  68.5252000  59.6109360  27.4036910
  61.3908840  62.9824220  22.4579220  60.9865840  62.2701470  21.9625120
  61.4771960  62.6377460  23.3467260  61.8590540  66.6691780  24.6218430
  61.5618830  66.0637250  23.9426210  62.8090360  66.7069090  24.5107790
  60.1037460  59.7567430  26.2378260  60.6552050  59.8662770  25.4631510
  60.6180970  60.1305030  26.9533490  60.9508970  66.4073470  31.2726230
  60.0537500  66.6313440  31.5199630  60.9761840  66.5308410  30.3237630
  67.9914190  63.2566590  17.1867490  68.4307470  62.4189020  17.0405310
  68.7042610  63.8895990  17.2731630  59.7780190  63.2786790  29.8483600
  59.6387960  64.1509590  30.2171000  58.8961550  62.9359600  29.7031540
  58.0913470  61.8769200  19.9585870  57.9711070  62.6031290  19.3467140
  57.7814360  61.1072110  19.4813780  55.7298840  65.0484340  25.7654510
  55.8079260  65.1833110  24.8210230  56.3440520  64.3400230  25.9582630
  56.9746470  66.7484530  22.1760690  56.5674550  66.8899120  21.3214290
  57.8659480  66.4644690  21.9731900  55.7858360  66.0898510  28.3048970
  55.9489400  65.6203870  27.4868340  56.2510810  65.5822070  28.9697810
  60.5577130  55.2204270  23.3409540  60.1145280  56.0013810  23.0094060
  61.1162120  55.5434160  24.0480480  64.8446940  58.0872790  28.9444860
  64.3826310  58.2955810  29.7564800  64.4425050  57.2732140  28.6415530
  69.8451450  59.3081740  30.0741520  68.9945040  59.0087490  30.3950590
  69.6853240  59.5523750  29.1625340  66.9401160  60.8083490  32.1740310
  67.2654570  59.9747240  31.8342540  67.7281490  61.3312010  32.3218640
  63.6735950  54.8414970  18.2215370  63.0490130  54.8374840  18.9468680
  63.5866070  53.9745930  17.8251340  62.5953030  55.7651600  25.1999140
  62.8925360  56.6714430  25.1191160  63.1438590  55.2770380  24.5858710
  60.3491350  60.3437840  21.0690790  60.1232270  60.1275010  21.9737410
  59.5683880  60.7766300  20.7236760  67.5789110  60.3501210  19.6681440
  66.9798000  61.0737010  19.4845060  68.1268720  60.2877990  18.8857890
  62.7890560  61.2423420  31.7351060  62.6934160  60.3018150  31.5851460
  63.6322540  61.4638490  31.3399130  66.1853980  58.9864750  21.6984720
  66.5783550  59.3036950  20.8853410  66.5470830  58.1076630  21.8129240
  57.9201100  57.6537090  29.8884840  57.5264490  58.5012300  30.0957620
  57.2319500  57.0163460  30.0793480  64.4946150  57.7372060  32.9581580
  63.8044470  57.5444260  33.5927670  65.2378450  58.0206700  33.4905880
  55.2218150  55.5765550  23.9214920  54.9331200  56.1468410  24.6339900
  55.9663910  55.0970000  24.2846150  55.4088380  59.5185670  15.1317640
  55.3263050  60.4616430  15.2732630  55.0571440  59.3760580  14.2529990
  66.7709120  61.5770500  25.7935500  66.0390240  62.0857310  26.1425600
  66.3733460  60.7600480  25.4924280  63.2086510  58.2524700  24.1987990
  63.2122570  57.8114650  23.3492530  64.1037630  58.5742030  24.3059810
  59.0588890  58.1351190  23.1582200  58.7188940  58.6126420  23.9149250
  58.2966210  57.6816310  22.7983300  63.2706660  59.2536780  17.1894750
  63.3919480  59.2123260  18.1380570  62.8855170  60.1160930  17.0341480
  67.2335030  57.0304180  25.2058440  67.2507770  57.4812830  26.0500290
  66.9850610  56.1309820  25.4191880  62.2828160  61.5637920  16.5878050
  61.7145060  61.1156170  15.9613960  62.9917160  61.9230700  16.0543200
  70.6605780  54.4436360  31.0444820  70.9851550  53.7126020  31.5702800
  70.6962290  54.1250000  30.1425810  57.3597340  65.4649940  30.4644780
  56.9752130  64.8243610  31.0627740  57.6709530  66.1686060  31.0339510
  63.5094480  62.3126480  25.9453400  63.8764610  61.8385050  26.6914740
  63.3199540  63.1868050  26.2861740  56.3734970  57.0570170  22.0746870
  56.0881890  56.6925840  22.9125490  56.3113830  56.3250630  21.4610010
  61.2993850  61.3535120  28.2637610  60.9950920  62.2327100  28.4887970
  62.2540310  61.4134910  28.2995050  59.8275640  65.5596110  18.8604460
  59.0537900  65.0193730  18.7003180  60.5570270  65.0402720  18.5222220
  66.0473560  55.9499430  18.7960240  65.2338170  55.4512600  18.7205550
  65.8535510  56.7897680  18.3796590  65.9682420  64.6270530  30.5399850
  65.9019730  63.7066200  30.2857440  65.3387560  64.7245970  31.2544490
  68.7621950  60.3219080  17.0922400  69.6501570  60.6336310  16.9173740
  68.7327040  59.4491330  16.7002980  59.8713040  65.2276490  22.4983270
  60.3891710  64.4244750  22.4440160  59.4197060  65.1655630  23.3400100
  64.7582540  66.4942770  17.7710570  65.0998240  67.2385000  17.2753890
  63.9295250  66.8073890  18.1335400  57.3557580  62.1937860  29.4108970
  56.9972520  62.8591710  29.9982310  57.0612140  61.3621410  29.7821590
  60.5570700  62.6522100  32.2948520  60.2570840  62.7979280  31.3976340
  61.3281940  62.0927390  32.2021910  65.8999150  67.4491100  30.2903650
  65.9143690  66.5172060  30.0722560  65.1924250  67.5350860  30.9293420
  67.6409950  65.8158610  23.1356080  67.9933770  65.2186740  22.4757450
  66.7572280  65.4902840  23.3064330  63.7273230  66.5756300  20.5426490
  64.4144360  67.1225510  20.9234080  62.9405650  67.1197030  20.5776100
  55.8665630  62.1929120  16.0343570  56.7360480  62.4753920  16.3179490
  55.3755950  63.0064990  15.9192380  63.0300440  63.5802330  20.1551850
  63.4863220  64.3907580  20.3812040  62.6788650  63.2625470  20.9870340
  58.9312220  53.9239980  20.6274370  58.8026850  53.9157880  21.5759290
  58.1074240  54.2623070  20.2765380  70.4520850  67.3789640  15.8260740
  70.2258430  66.6620080  16.4185380  70.0617050  67.1302080  14.9882490
  55.9306150  55.6831100  30.0881070  55.2164670  55.8828020  30.6933680
  56.3501190  54.9070670  30.4595870  70.0337100  65.2961580  17.4874900
  69.7458800  65.7574270  18.2752780  70.8289270  64.8359350  17.7559120
  57.8512140  64.0102590  18.1625630  57.2440090  64.7501490  18.1720930
  58.3261490  64.1001950  17.3363830  67.4244930  58.1753410  27.8382520
  67.7925750  57.3548620  28.1662090  66.5643130  58.2355300  28.2538170
  70.7906960  57.1310350  18.6470080  70.1620120  57.2356020  17.9328310
  70.2958880  57.3507130  19.4363960  62.7590990  59.4096300  20.0627960
  62.0507140  59.8782640  20.5041570  63.0435470  58.7518310  20.6973150
  64.3846920  60.8293000  28.0620490  64.8832170  61.3038820  28.7272340
  64.5269870  59.9056520  28.2690520  66.7906420  56.1346960  21.5023750
  66.6674200  56.1533090  20.5533260  67.7390980  56.1825900  21.6222150
  60.9626010  57.7181380  17.4378670  61.8116540  58.1551530  17.3718860
  60.5957280  58.0301640  18.2650730  69.8835790  62.2894140  22.3510240
  68.9425930  62.3044370  22.5257930  70.1979860  61.5030100  22.7970540
  59.8617430  63.9713740  15.9114200  60.6280700  63.8595100  16.4739630
  59.9392120  63.2751710  15.2590970  58.5564190  61.4038810  16.5947090
  58.6367780  60.4566320  16.7064490  59.4483940  61.7345690  16.7007750
  67.2001810  66.8460140  32.8342620  66.5939970  66.8691740  32.0938370
  66.8955920  66.1143180  33.3709870  56.0834990  63.2253730  31.8303260
  56.5874010  62.6461010  32.4019490  55.3442410  63.5093960  32.3679630
  62.9858610  65.9467920  15.3849550  62.8809250  65.3320270  16.1110930
  62.8182830  65.4233810  14.6012560  63.1372930  64.6324720  31.3638780
  62.3718600  65.2009720  31.2793450  63.3188890  64.3400930  30.4707010
  66.2261340  65.0087950  15.9891540  65.6771440  65.4557250  16.6334280
  66.8480600  64.5037200  16.5129210  70.2796280  66.3630050  31.9213800
  71.0205750  66.7005810  31.4181260  69.5168960  66.5322110  31.3683570
  58.1158070  61.3683320  32.7253330  58.1563410  61.0697190  33.6338560
  58.9703570  61.7690930  32.5660850  61.8936460  63.9678870  17.8856840
  62.3152880  63.8018740  18.7288230  62.0187300  63.1579100  17.3911980
  60.0563880  59.9475420  30.6927820  59.5260340  59.4566370  30.0651160
  60.7251950  60.3759620  30.1585750  64.4064100  62.9916480  15.1333940
  64.9269760  62.2765500  14.7675090  65.0532500  63.6302350  15.4334450
  68.9541940  64.4144880  30.4569010  69.3682960  64.5689960  31.3059430
  68.0192940  64.5400100  30.6194790  69.4264110  61.7541040  32.4608160
  70.0084880  60.9993360  32.3728640  69.6025880  62.2848480  31.6839640
  60.5436180  56.9137790  30.7725110  60.4493050  56.2958540  30.0475980
  59.9633570  57.6404080  30.5455020  63.3097620  55.4711030  27.8052500
  62.8614920  55.4935290  26.9598050  62.6762820  55.0730050  28.4022800
  63.7157170  64.3665360  28.4264940  64.1345280  65.2098090  28.2541180
  62.7965800  64.5037400  28.1971720  66.0521070  62.0981540  29.8102780
  66.1717280  61.5022680  30.5497620  66.9115070  62.1351230  29.3904080
  68.3908970  62.6518730  28.3865290  67.8644190  63.1761350  27.7830430
  68.7340310  63.2846120  29.0175020  60.7895360  60.0412100  14.8315000
  60.5884420  59.1779460  15.1928340  60.6187410  59.9545460  13.8936600
  62.8189840  58.6402890  31.0678600  63.4089530  58.3318740  31.7556420
  62.0010080  58.1682640  31.2238500  67.6383270  58.2568700  31.3011620
  66.9498790  57.5950240  31.2361610  68.3589290  57.8106970  31.7460080
  68.2683670  54.8520330  17.3601880  68.5485960  54.0088230  17.7161300
  67.4949400  55.0843440  17.8740630  59.5878160  57.1412720  14.8192880
  59.8904060  57.1480150  13.9112030  60.3272750  56.7910580  15.3160540
  62.8063090  56.0847340  15.8049080  62.4585090  55.4071330  15.2251530
  63.0075860  55.6236850  16.6192470  58.6108290  66.4455140  15.6522680
  59.0483160  66.9884810  16.3080260  59.0956020  65.6202090  15.6619020
  60.4216010  67.5653180  20.7644910  60.1211550  67.4418150  21.6648820
  60.3153500  66.7061770  20.3560640  56.1468730  62.6134990  22.2013450
  55.4917570  62.3446630  21.5573150  56.9846680  62.5039470  21.7515430
  70.6358120  66.3283740  28.2278040  69.8217960  66.7580900  28.4903830
  71.0432320  66.9402150  27.6147090  69.0959170  57.4076280  16.4231940
  69.5144050  57.2207260  15.5828600  68.7895230  56.5555330  16.7334870
  57.1844660  62.9987560  26.7416790  57.5517700  62.9114960  27.6212810
  56.6155480  62.2354110  26.6423650  56.7360660  59.9096650  30.6475210
  55.8416710  59.8763410  30.9868920  57.2758210  60.1083440  31.4126460
  55.3606810  59.8233920  18.1438780  54.4570890  60.0864120  17.9690440
  55.8447430  60.0945090  17.3638740  57.9034020  58.8799460  16.0533160
  58.6125720  58.4582680  15.5680440  57.1873960  58.9474690  15.4216510
  57.5508180  54.9338790  15.0935810  58.2736310  55.4747730  15.4117030
  57.8232700  54.6602210  14.2177350  57.2400370  54.1844980  24.9958430
  57.8876560  53.6342360  24.5553590  57.6602210  54.4388130  25.8174240
  56.9932370  54.3400650  27.7383750  56.6447190  54.7964470  28.5041930
  56.6620070  53.4457780  27.8206180  64.5057190  55.5312530  31.2603170
  64.4446080  56.1234360  32.0098580  65.4457570  55.4238490  31.1153430
  67.1431750  55.1882590  30.8995460  67.7572160  55.5061880  30.2376540
  67.6881310  54.7031180  31.5191320  57.6653010  53.8676850  31.0134520
  58.2136000  53.6864900  30.2500630  57.7308320  53.0770960  31.5490830
  67.8839790  53.7514730  27.2264750  67.0099630  54.0849840  27.0237680
  67.7750540  53.2787910  28.0516620  68.7911770  55.9585600  28.6106470
  68.4625130  55.1437360  28.2308200  69.7394070  55.9155410  28.4872160
  65.6314610  54.6684570  26.1657660  64.8486400  55.1430070  26.4454420
  65.3377540  53.7639400  26.0570840  70.1835680  55.3707670  24.2106750
  70.6243770  55.3152770  23.3628350  69.9143270  56.2865680  24.2816930
  56.9755020  54.9732050  18.6871380  57.7334380  55.0860930  18.1135410
  56.5132190  55.8101250  18.6414810  63.5168830  57.0871320  21.6773690
  62.7043340  56.7128210  21.3369570  64.0210470  56.3316400  21.9794880
  68.0193810  53.7513770  22.9156760  68.6223180  54.3233980  23.3905280
  67.2786800  54.3153210  22.6930660  59.3480170  55.4996100  17.2273350
  59.8772930  54.7125900  17.0981300  59.9808490  56.1787290  17.4608880
  61.5418010  55.2371240  20.2818740  60.9120750  54.5358550  20.4488870
  61.0023150  55.9975370  20.0651900  61.6673570  54.5155220  32.7171230
  61.3857840  55.0188820  31.9532050  62.0493270  53.7176970  32.3513360
  68.2689030  53.9308800  33.2951700  68.1554480  54.2503410  34.1903220
  69.0858770  54.3321310  32.9988980  67.1747180  61.9501270   3.6586440
  67.0941230  61.0355880   3.3878150  66.7611600  62.4468340   2.9526150
  65.3065220  63.7280290   5.5395710  64.5307320  63.2480730   5.8294280
  65.9578150  63.0485940   5.3651870  59.3231050  64.0400100   6.4171470
  58.4915930  63.7848810   6.8167980  59.9312030  64.1110870   7.1529390
  55.6956010  61.6007640   6.0853560  56.2672120  60.8329840   6.0857200
  55.6957550  61.8996400   5.1760170  64.7474210  66.4037480   5.5465870
  64.6782490  65.4627420   5.3855000  65.5094070  66.4938890   6.1188440
  56.9380880  57.0092000   7.8722490  56.7583720  56.1117750   8.1525250
  56.5360960  57.5563870   8.5469440  65.7779380  59.2107860   5.7734800
  66.1544200  58.3379740   5.6608470  65.6798890  59.5466560   4.8825240
  69.5603500  56.7058300   2.7063140  70.3813120  56.2154870   2.7488620
  69.5937580  57.2955960   3.4594980  57.5567550  59.5052500   6.4804830
  58.2377660  59.7690870   7.0992230  57.2415600  58.6653370   6.8142840
  61.7492120  60.5519860   5.5677420  62.2570340  61.0500830   6.2082440
  62.2805360  59.7755060   5.3916780  60.0328220  55.1918420   9.8340840
  60.0346660  55.7090810   9.0286740  59.2032530  54.7148600   9.8110770
  61.2831070  64.8313600   8.0114340  60.9500450  65.4582520   8.6535410
  61.4597750  65.3575480   7.2316010  69.7964980  58.6458680   5.4790680
  69.0920550  58.9343570   6.0593790  70.1577140  59.4558790   5.1190240
  59.7143550  56.9028380   7.8411290  60.0560360  57.7470430   7.5465160
  58.7759360  57.0512120   7.9576630  60.4950170  66.7994400   9.8263520
  61.1124170  67.4745480   9.5447970  59.6343290  67.2082380   9.7351020
  63.3971440  54.3910650   4.1655880  63.7046420  53.8357540   3.4491380
  62.4672140  54.5255110   3.9828870  68.3471940  65.0107780   7.7845950
  68.7640730  64.7967890   6.9499410  69.0711760  65.2680570   8.3554570
  69.2576050  60.1964320   8.8217060  68.8447230  61.0218030   9.0757050
  68.5252000  59.6109360   8.6293420  61.3908840  62.9824220   3.6835730
  60.9865840  62.2701470   3.1881630  61.4771960  62.6377460   4.5723770
  61.8590540  66.6691780   5.8474940  61.5618830  66.0637250   5.1682720
  62.8090360  66.7069090   5.7364300  60.1037460  59.7567430   7.4634770
  60.6552050  59.8662770   6.6888020  60.6180970  60.1305030   8.1790000
  60.9508970  66.4073470  12.4982740  60.0537500  66.6313440  12.7456140
  60.9761840  66.5308410  11.5494140  59.7780190  63.2786790  11.0740110
  59.6387960  64.1509590  11.4427510  58.8961550  62.9359600  10.9288050
  55.7298840  65.0484340   6.9911020  55.8079260  65.1833110   6.0466740
  56.3440520  64.3400230   7.1839140  56.9746470  66.7484530   3.4017200
  56.5674550  66.8899120   2.5470800  57.8659480  66.4644690   3.1988410
  55.7858360  66.0898510   9.5305480  55.9489400  65.6203870   8.7124850
  56.2510810  65.5822070  10.1954320  60.5577130  55.2204270   4.5666050
  60.1145280  56.0013810   4.2350570  61.1162120  55.5434160   5.2736990
  64.8446940  58.0872790  10.1701370  64.3826310  58.2955810  10.9821310
  64.4425050  57.2732140   9.8672040  69.8451450  59.3081740  11.2998030
  68.9945040  59.0087490  11.6207100  69.6853240  59.5523750  10.3881850
  66.9401160  60.8083490  13.3996820  67.2654570  59.9747240  13.0599050
  67.7281490  61.3312010  13.5475150  62.5953030  55.7651600   6.4255650
  62.8925360  56.6714430   6.3447670  63.1438590  55.2770380   5.8115220
  60.3491350  60.3437840   2.2947300  60.1232270  60.1275010   3.1993920
  59.5683880  60.7766300   1.9493270  62.7890560  61.2423420  12.9607570
  62.6934160  60.3018150  12.8107970  63.6322540  61.4638490  12.5655640
  66.1853980  58.9864750   2.9241230  66.5783550  59.3036950   2.1109920
  66.5470830  58.1076630   3.0385750  57.9201100  57.6537090  11.1141350
  57.5264490  58.5012300  11.3214130  57.2319500  57.0163460  11.3049990
  64.4946150  57.7372060  14.1838090  63.8044470  57.5444260  14.8184180
  65.2378450  58.0206700  14.7162390  55.2218150  55.5765550   5.1471430
  54.9331200  56.1468410   5.8596410  55.9663910  55.0970000   5.5102660
  66.7709120  61.5770500   7.0192010  66.0390240  62.0857310   7.3682110
  66.3733460  60.7600480   6.7180790  63.2086510  58.2524700   5.4244500
  63.2122570  57.8114650   4.5749040  64.1037630  58.5742030   5.5316320
  59.0588890  58.1351190   4.3838710  58.7188940  58.6126420   5.1405760
  58.2966210  57.6816310   4.0239810  67.2335030  57.0304180   6.4314950
  67.2507770  57.4812830   7.2756800  66.9850610  56.1309820   6.6448390
  70.6605780  54.4436360  12.2701330  70.9851550  53.7126020  12.7959310
  70.6962290  54.1250000  11.3682320  57.3597340  65.4649940  11.6901290
  56.9752130  64.8243610  12.2884250  57.6709530  66.1686060  12.2596020
  63.5094480  62.3126480   7.1709910  63.8764610  61.8385050   7.9171250
  63.3199540  63.1868050   7.5118250  56.3734970  57.0570170   3.3003380
  56.0881890  56.6925840   4.1382000  56.3113830  56.3250630   2.6866520
  61.2993850  61.3535120   9.4894120  60.9950920  62.2327100   9.7144480
  62.2540310  61.4134910   9.5251560  65.9682420  64.6270530  11.7656360
  65.9019730  63.7066200  11.5113950  65.3387560  64.7245970  12.4801000
  59.8713040  65.2276490   3.7239780  60.3891710  64.4244750   3.6696670
  59.4197060  65.1655630   4.5656610  57.3557580  62.1937860  10.6365480
  56.9972520  62.8591710  11.2238820  57.0612140  61.3621410  11.0078100
  60.5570700  62.6522100  13.5205030  60.2570840  62.7979280  12.6232850
  61.3281940  62.0927390  13.4278420  65.8999150  67.4491100  11.5160160
  65.9143690  66.5172060  11.2979070  65.1924250  67.5350860  12.1549930
  67.6409950  65.8158610   4.3612590  67.9933770  65.2186740   3.7013960
  66.7572280  65.4902840   4.5320840  63.7273230  66.5756300   1.7683000
  64.4144360  67.1225510   2.1490590  62.9405650  67.1197030   1.8032610
  55.9306150  55.6831100  11.3137580  55.2164670  55.8828020  11.9190190
  56.3501190  54.9070670  11.6852380  67.4244930  58.1753410   9.0639030
  67.7925750  57.3548620   9.3918600  66.5643130  58.2355300   9.4794680
  64.3846920  60.8293000   9.2877000  64.8832170  61.3038820   9.9528850
  64.5269870  59.9056520   9.4947030  66.7906420  56.1346960   2.7280260
  66.6674200  56.1533090   1.7789770  67.7390980  56.1825900   2.8478660
  69.8835790  62.2894140   3.5766750  68.9425930  62.3044370   3.7514440
  70.1979860  61.5030100   4.0227050  67.2001810  66.8460140  14.0599130
  66.5939970  66.8691740  13.3194880  66.8955920  66.1143180  14.5966380
  56.0834990  63.2253730  13.0559770  56.5874010  62.6461010  13.6276000
  55.3442410  63.5093960  13.5936140  63.1372930  64.6324720  12.5895290
  62.3718600  65.2009720  12.5049960  63.3188890  64.3400930  11.6963520
  70.2796280  66.3630050  13.1470310  71.0205750  66.7005810  12.6437770
  69.5168960  66.5322110  12.5940080  58.1158070  61.3683320  13.9509840
  58.1563410  61.0697190  14.8595070  58.9703570  61.7690930  13.7917360
  60.0563880  59.9475420  11.9184330  59.5260340  59.4566370  11.2907670
  60.7251950  60.3759620  11.3842260  68.9541940  64.4144880  11.6825520
  69.3682960  64.5689960  12.5315940  68.0192940  64.5400100  11.8451300
  69.4264110  61.7541040  13.6864670  70.0084880  60.9993360  13.5985150
  69.6025880  62.2848480  12.9096150  60.5436180  56.9137790  11.9981620
  60.4493050  56.2958540  11.2732490  59.9633570  57.6404080  11.7711530
  63.3097620  55.4711030   9.0309010  62.8614920  55.4935290   8.1854560
  62.6762820  55.0730050   9.6279310  63.7157170  64.3665360   9.6521450
  64.1345280  65.2098090   9.4797690  62.7965800  64.5037400   9.4228230
  66.0521070  62.0981540  11.0359290  66.1717280  61.5022680  11.7754130
  66.9115070  62.1351230  10.6160590  68.3908970  62.6518730   9.6121800
  67.8644190  63.1761350   9.0086940  68.7340310  63.2846120  10.2431530
  62.8189840  58.6402890  12.2935110  63.4089530  58.3318740  12.9812930
  62.0010080  58.1682640  12.4495010  67.6383270  58.2568700  12.5268130
  66.9498790  57.5950240  12.4618120  68.3589290  57.8106970  12.9716590
  56.1468730  62.6134990   3.4269960  55.4917570  62.3446630   2.7829660
  56.9846680  62.5039470   2.9771940  70.6358120  66.3283740   9.4534550
  69.8217960  66.7580900   9.7160340  71.0432320  66.9402150   8.8403600
  57.1844660  62.9987560   7.9673300  57.5517700  62.9114960   8.8469320
  56.6155480  62.2354110   7.8680160  56.7360660  59.9096650  11.8731720
  55.8416710  59.8763410  12.2125430  57.2758210  60.1083440  12.6382970
  57.2400370  54.1844980   6.2214940  57.8876560  53.6342360   5.7810100
  57.6602210  54.4388130   7.0430750  56.9932370  54.3400650   8.9640260
  56.6447190  54.7964470   9.7298440  56.6620070  53.4457780   9.0462690
  64.5057190  55.5312530  12.4859680  64.4446080  56.1234360  13.2355090
  65.4457570  55.4238490  12.3409940  67.1431750  55.1882590  12.1251970
  67.7572160  55.5061880  11.4633050  67.6881310  54.7031180  12.7447830
  57.6653010  53.8676850  12.2391030  58.2136000  53.6864900  11.4757140
  57.7308320  53.0770960  12.7747340  67.8839790  53.7514730   8.4521260
  67.0099630  54.0849840   8.2494190  67.7750540  53.2787910   9.2773130
  68.7911770  55.9585600   9.8362980  68.4625130  55.1437360   9.4564710
  69.7394070  55.9155410   9.7128670  65.6314610  54.6684570   7.3914170
  64.8486400  55.1430070   7.6710930  65.3377540  53.7639400   7.2827350
  70.1835680  55.3707670   5.4363260  70.6243770  55.3152770   4.5884860
  69.9143270  56.2865680   5.5073440  63.5168830  57.0871320   2.9030200
  62.7043340  56.7128210   2.5626080  64.0210470  56.3316400   3.2051390
  68.0193810  53.7513770   4.1413270  68.6223180  54.3233980   4.6161790
  67.2786800  54.3153210   3.9187170  61.6673570  54.5155220  13.9427740
  61.3857840  55.0188820  13.1788560  62.0493270  53.7176970  13.5769870
  68.2689030  53.9308800  14.5208210  68.1554480  54.2503410  15.4159730
  69.0858770  54.3321310  14.2245490  67.1747180  43.1757780  78.7560400
  67.0941230  42.2612390  78.4852110  66.7611600  43.6724850  78.0500110
  65.3065220  44.9536800  80.6369670  64.5307320  44.4737240  80.9268240
  65.9578150  44.2742450  80.4625830  59.3231050  45.2656610  81.5145430
  58.4915930  45.0105320  81.9141940  59.9312030  45.3367380  82.2503350
  69.3272650  49.3596990  79.4168800  68.8654180  48.5884230  79.7455970
  70.1398200  49.3863060  79.9221250  59.3032310  49.2996700  81.7103450
  59.6060350  48.4094440  81.5313670  60.0475900  49.8566920  81.4825700
  57.7323000  40.2258500  75.2987820  56.8439700  40.5674470  75.1967700
  58.0164190  40.0258820  74.4068650  55.6956010  42.8264150  81.1827520
  56.2672120  42.0586350  81.1831160  55.6957550  43.1252910  80.2734130
  65.5535960  51.6455000  79.0372790  64.9347400  52.1012500  78.4667230
  66.4087740  51.8006460  78.6362490  64.7474210  47.6293990  80.6439830
  64.6782490  46.6883930  80.4828960  65.5094070  47.7195400  81.2162400
  56.9380880  38.2348510  82.9696450  56.7583720  37.3374260  83.2499210
  56.5360960  38.7820380  83.6443400  65.7779380  40.4364370  80.8708760
  66.1544200  39.5636250  80.7582430  65.6798890  40.7723070  79.9799200
  59.9084390  38.8090000  76.3326200  60.0151140  39.7093730  76.6394960
  58.9976750  38.7607970  76.0420850  69.5603500  37.9314810  77.8037100
  70.3813120  37.4411380  77.8462580  69.5937580  38.5212470  78.5568940
  57.5567550  40.7309010  81.5778790  58.2377660  40.9947380  82.1966190
  57.2415600  39.8909880  81.9116800  61.7492120  41.7776370  80.6651380
  62.2570340  42.2757340  81.3056400  62.2805360  41.0011570  80.4890740
  66.4199310  46.5294240  76.4304700  65.8016580  46.9943690  75.8667420
  66.9322560  47.2221720  76.8474210  61.2831070  46.0570110  83.1088300
  60.9500450  46.6839030  83.7509370  61.4597750  46.5831990  82.3289970
  69.7964980  39.8715190  80.5764640  69.0920550  40.1600080  81.1567750
  70.1577140  40.6815300  80.2164200  59.7143550  38.1284890  82.9385250
  60.0560360  38.9726940  82.6439120  58.7759360  38.2768630  83.0550590
  55.7882510  47.2150770  73.8044330  55.4110490  47.7037870  73.0729230
  56.0455580  47.8876050  74.4350860  63.3971440  35.6167160  79.2629840
  63.7046420  35.0614050  78.5465340  62.4672140  35.7511620  79.0802830
  68.9486500  51.3334450  81.5537300  68.9613660  50.9296740  80.6859560
  68.3961720  52.1081740  81.4498730  70.2431920  48.0550670  76.6427470
  70.1328250  47.1125000  76.7676890  70.2400170  48.4166310  77.5290230
  68.3471940  46.2364290  82.8819910  68.7640730  46.0224400  82.0473370
  69.0711760  46.4937080  83.4528530  65.7852200  43.6815990  75.9989960
  64.8581480  43.6153370  76.2278430  65.9377020  44.6196120  75.8845200
  65.7721280  39.9532990  72.9957120  64.8324950  40.1146950  73.0809580
  66.0904540  40.6718670  72.4493110  69.8149490  45.2436290  76.5025210
  69.1961910  44.9055840  75.8551510  69.7973940  44.5996050  77.2104400
  61.3908840  44.2080730  78.7809690  60.9865840  43.4957980  78.2855590
  61.4771960  43.8633970  79.6697730  61.8590540  47.8948290  80.9448900
  61.5618830  47.2893760  80.2656680  62.8090360  47.9325600  80.8338260
  60.1037460  40.9823940  82.5608730  60.6552050  41.0919280  81.7861980
  60.6180970  41.3561540  83.2763960  67.9914190  44.4823100  73.5097960
  68.4307470  43.6445530  73.3635780  68.7042610  45.1152500  73.5962100
  66.1009570  49.4219170  77.4779200  66.5405480  50.1643500  77.0634590
  66.0396460  49.6645740  78.4018160  58.0913470  43.1025710  76.2816340
  57.9711070  43.8287800  75.6697610  57.7814360  42.3328620  75.8044250
  55.7298840  46.2740850  82.0884980  55.8079260  46.4089620  81.1440700
  56.3440520  45.5656740  82.2813100  56.9746470  47.9741040  78.4991160
  56.5674550  48.1155630  77.6444760  57.8659480  47.6901200  78.2962370
  68.7679750  52.4088290  74.8342210  68.6080890  52.1191230  75.7324040
  68.6026460  51.6328420  74.2987440  61.2468130  52.1886820  76.6113830
  61.0710610  51.2722360  76.3981630  60.3923870  52.5474110  76.8511630
  68.4705880  49.9175850  73.3940210  67.7771040  49.9153140  72.7342490
  69.2128740  49.4935170  72.9634380  68.0355810  51.5438560  77.4688700
  68.4912760  50.7627940  77.7827320  68.3748330  52.2545380  78.0129880
  60.5577130  36.4460780  79.6640010  60.1145280  37.2270320  79.3324530
  61.1162120  36.7690670  80.3710950  63.6735950  36.0671480  74.5445840
  63.0490130  36.0631350  75.2699150  63.5866070  35.2002440  74.1481810
  62.5953030  36.9908110  81.5229610  62.8925360  37.8970940  81.4421630
  63.1438590  36.5026890  80.9089180  60.3491350  41.5694350  77.3921260
  60.1232270  41.3531520  78.2967880  59.5683880  42.0022810  77.0467230
  67.5789110  41.5757720  75.9911910  66.9798000  42.2993520  75.8075530
  68.1268720  41.5134500  75.2088360  66.1853980  40.2121260  78.0215190
  66.5783550  40.5293460  77.2083880  66.5470830  39.3333140  78.1359710
  55.2218150  36.8022060  80.2445390  54.9331200  37.3724920  80.9570370
  55.9663910  36.3226510  80.6076620  66.7709120  42.8027010  82.1165970
  66.0390240  43.3113820  82.4656070  66.3733460  41.9856990  81.8154750
  63.2086510  39.4781210  80.5218460  63.2122570  39.0371160  79.6723000
  64.1037630  39.7998540  80.6290280  59.0588890  39.3607700  79.4812670
  58.7188940  39.8382930  80.2379720  58.2966210  38.9072820  79.1213770
  63.2706660  40.4793290  73.5125220  63.3919480  40.4379770  74.4611040
  62.8855170  41.3417440  73.3571950  67.2335030  38.2560690  81.5288910
  67.2507770  38.7069340  82.3730760  66.9850610  37.3566330  81.7422350
  62.2828160  42.7894430  72.9108520  61.7145060  42.3412680  72.2844430
  62.9917160  43.1487210  72.3773670  63.5094480  43.5382990  82.2683870
  63.8764610  43.0641560  83.0145210  63.3199540  44.4124560  82.6092210
  56.3734970  38.2826680  78.3977340  56.0881890  37.9182350  79.2355960
  56.3113830  37.5507140  77.7840480  59.8275640  46.7852620  75.1834930
  59.0537900  46.2450240  75.0233650  60.5570270  46.2659230  74.8452690
  66.0473560  37.1755940  75.1190710  65.2338170  36.6769110  75.0436020
  65.8535510  38.0154190  74.7027060  68.7621950  41.5475590  73.4152870
  69.6501570  41.8592820  73.2404210  68.7327040  40.6747840  73.0233450
  59.8713040  46.4533000  78.8213740  60.3891710  45.6501260  78.7670630
  59.4197060  46.3912140  79.6630570  64.7582540  47.7199280  74.0941040
  65.0998240  48.4641510  73.5984360  63.9295250  48.0330400  74.4565870
  67.6409950  47.0415120  79.4586550  67.9933770  46.4443250  78.7987920
  66.7572280  46.7159350  79.6294800  63.7273230  47.8012810  76.8656960
  64.4144360  48.3482020  77.2464550  62.9405650  48.3453540  76.9006570
  63.0300440  44.8058840  76.4782320  63.4863220  45.6164090  76.7042510
  62.6788650  44.4881980  77.3100810  58.9312220  35.1496490  76.9504840
  58.8026850  35.1414390  77.8989760  58.1074240  35.4879580  76.5995850
  66.6065130  48.3197530  82.4252070  67.2487360  47.6190690  82.5384240
  67.1314480  49.0995970  82.2448960  70.4520850  48.6046150  72.1491210
  70.2258430  47.8876590  72.7415850  70.0617050  48.3558590  71.3112960
  56.2336880  52.6313010  72.9235670  56.5934520  53.2302350  72.2692940
  56.0929220  53.1772900  73.6970700  70.0337100  46.5218090  73.8105370
  69.7458800  46.9830780  74.5983250  70.8289270  46.0615860  74.0789590
  62.2505500  50.0144210  73.7409340  62.2415600  50.7473900  73.1253850
  61.3303860  49.7675790  73.8336300  57.8512140  45.2359100  74.4856100
  57.2440090  45.9758000  74.4951400  58.3261490  45.3258460  73.6594300
  70.7906960  38.3566860  74.9700550  70.1620120  38.4612530  74.2558780
  70.2958880  38.5763640  75.7594430  65.2365100  50.0772450  72.4034530
  65.3377080  49.8736440  71.4736510  64.3366840  49.8230730  72.6082310
  62.7590990  40.6352810  76.3858430  62.0507140  41.1039150  76.8272040
  63.0435470  39.9774820  77.0203620  66.7906420  37.3603470  77.8254220
  66.6674200  37.3789600  76.8763730  67.7390980  37.4082410  77.9452620
  63.8783210  52.5958770  77.0982200  64.1324710  52.5580160  76.1761570
  62.9295690  52.4692100  77.0910450  60.9626010  38.9437890  73.7609140
  61.8116540  39.3808040  73.6949330  60.5957280  39.2558150  74.5881200
  69.8835790  43.5150650  78.6740710  68.9425930  43.5300880  78.8488400
  70.1979860  42.7286610  79.1201010  59.8617430  45.1970250  72.2344670
  60.6280700  45.0851610  72.7970100  59.9392120  44.5008220  71.5821440
  58.5564190  42.6295320  72.9177560  58.6367780  41.6822830  73.0294960
  59.4483940  42.9602200  73.0238220  59.3578900  52.7790710  80.0212100
  60.0941380  52.2306170  80.2920670  59.7419820  53.6446720  79.8818090
  56.2424380  48.8464280  75.8953610  55.3164160  49.0885420  75.8859020
  56.7080810  49.6738540  75.7738360  62.4681210  51.9521020  71.8437670
  63.2609820  52.2409850  71.3919460  61.9485560  51.5213190  71.1650150
  62.9858610  47.1724430  71.7080020  62.8809250  46.5576780  72.4341400
  62.8182830  46.6490320  70.9243030  66.2261340  46.2344460  72.3122010
  65.6771440  46.6813760  72.9564750  66.8480600  45.7293710  72.8359680
  61.8936460  45.1935380  74.2087310  62.3152880  45.0275250  75.0518700
  62.0187300  44.3835610  73.7142450  64.4064100  44.2172990  71.4564410
  64.9269760  43.5022010  71.0905560  65.0532500  44.8558860  71.7564920
  60.7895360  41.2668610  71.1545470  60.5884420  40.4035970  71.5158810
  60.6187410  41.1801970  70.2167070  68.2683670  36.0776840  73.6832350
  68.5485960  35.2344740  74.0391770  67.4949400  36.3099950  74.1971100
  59.5878160  38.3669230  71.1423350  59.8904060  38.3736660  70.2342500
  60.3272750  38.0167090  71.6391010  62.8063090  37.3103850  72.1279550
  62.4585090  36.6327840  71.5482000  63.0075860  36.8493360  72.9422940
  64.9712130  52.2984600  73.7466150  65.8662920  52.6369570  73.7684910
  65.0029760  51.5764010  73.1190430  55.8254090  50.4600680  79.4273410
  56.1557100  49.5921740  79.1952050  56.2545090  50.6659200  80.2578370
  60.4216010  48.7909690  77.0875380  60.1211550  48.6674660  77.9879290
  60.3153500  47.9318280  76.6791110  56.3144300  51.3271270  82.1655040
  55.8775290  51.5072070  82.9979190  56.8821980  52.0845890  82.0236760
  56.1468730  43.8391500  78.5243920  55.4917570  43.5703140  77.8803620
  56.9846680  43.7295980  78.0745900  69.0959170  38.6332790  72.7462410
  69.5144050  38.4463770  71.9059070  68.7895230  37.7811840  73.0565340
  55.3606810  41.0490430  74.4669250  54.4570890  41.3120630  74.2920910
  55.8447430  41.3201600  73.6869210  57.9034020  40.1055970  72.3763630
  58.6125720  39.6839190  71.8910910  57.1873960  40.1731200  71.7446980
  57.5508180  36.1595300  71.4166280  58.2736310  36.7004240  71.7347500
  57.8232700  35.8858720  70.5407820  57.2400370  35.4101490  81.3188900
  57.8876560  34.8598870  80.8784060  57.6602210  35.6644640  82.1404710
  61.6742100  51.2642390  81.0822640  62.1907120  50.6529750  80.5570900
  62.3239480  51.7671170  81.5733650  64.4137600  52.1550880  81.9091620
  64.7015410  51.9005180  81.0324630  64.9260820  51.6028240  82.4997190
  65.6314610  35.8941080  82.4888130  64.8486400  36.3686580  82.7684890
  65.3377540  34.9895910  82.3801310  70.1835680  36.5964180  80.5337220
  70.6243770  36.5409280  79.6858820  69.9143270  37.5122190  80.6047400
  56.3527000  52.3671780  77.5069990  56.1849040  51.7342460  78.2051880
  55.4861510  52.5731180  77.1564180  56.9755020  36.1988560  75.0101850
  57.7334380  36.3117440  74.4365880  56.5132190  37.0357760  74.9645280
  63.5168830  38.3127830  78.0004160  62.7043340  37.9384720  77.6600040
  64.0210470  37.5572910  78.3025350  68.0193810  34.9770280  79.2387230
  68.6223180  35.5490490  79.7135750  67.2786800  35.5409720  79.0161130
  57.9589700  51.0605010  74.9520130  57.4337320  51.4413040  74.2482090
  57.8834280  51.6855780  75.6729840  59.3480170  36.7252610  73.5503820
  59.8772930  35.9382410  73.4211770  59.9808490  37.4043800  73.7839350
  61.5418010  36.4627750  76.6049210  60.9120750  35.7615060  76.7719340
  61.0023150  37.2231880  76.3882370  60.5582670  53.0087390  73.8269380
  61.2901490  52.7246670  73.2793270  60.8176340  52.7700670  74.7168760
  59.7197460  49.1252120  73.8315710  59.0906340  49.5937220  74.3801540
  59.8345290  48.2801340  74.2661900  67.1747180  43.1757780  59.9816910
  67.0941230  42.2612390  59.7108620  66.7611600  43.6724850  59.2756620
  65.3065220  44.9536800  61.8626180  64.5307320  44.4737240  62.1524750
  65.9578150  44.2742450  61.6882340  59.3231050  45.2656610  62.7401940
  58.4915930  45.0105320  63.1398450  59.9312030  45.3367380  63.4759860
  69.3272650  49.3596990  60.6425310  68.8654180  48.5884230  60.9712480
  70.1398200  49.3863060  61.1477760  59.3032310  49.2996700  62.9359960
  59.6060350  48.4094440  62.7570180  60.0475900  49.8566920  62.7082210
  65.5535960  51.6455000  60.2629300  64.9347400  52.1012500  59.6923740
  66.4087740  51.8006460  59.8619000  64.7474210  47.6293990  61.8696340
  64.6782490  46.6883930  61.7085470  65.5094070  47.7195400  62.4418910
  65.7779380  40.4364370  62.0965270  66.1544200  39.5636250  61.9838940
  65.6798890  40.7723070  61.2055710  59.9084390  38.8090000  57.5582710
  60.0151140  39.7093730  57.8651470  58.9976750  38.7607970  57.2677360
  69.5603500  37.9314810  59.0293610  70.3813120  37.4411380  59.0719090
  69.5937580  38.5212470  59.7825450  61.7492120  41.7776370  61.8907890
  62.2570340  42.2757340  62.5312910  62.2805360  41.0011570  61.7147250
  60.0328220  36.4174930  66.1571310  60.0346660  36.9347320  65.3517210
  59.2032530  35.9405110  66.1341240  66.4199310  46.5294240  57.6561210
  65.8016580  46.9943690  57.0923930  66.9322560  47.2221720  58.0730720
  61.2831070  46.0570110  64.3344810  60.9500450  46.6839030  64.9765880
  61.4597750  46.5831990  63.5546480  69.7964980  39.8715190  61.8021150
  69.0920550  40.1600080  62.3824260  70.1577140  40.6815300  61.4420710
  59.7143550  38.1284890  64.1641760  60.0560360  38.9726940  63.8695630
  58.7759360  38.2768630  64.2807100  60.4950170  48.0250910  66.1493990
  61.1124170  48.7001990  65.8678440  59.6343290  48.4338890  66.0581490
  55.7882510  47.2150770  55.0300840  55.4110490  47.7037870  54.2985740
  56.0455580  47.8876050  55.6607370  63.3971440  35.6167160  60.4886350
  63.7046420  35.0614050  59.7721850  62.4672140  35.7511620  60.3059340
  68.9486500  51.3334450  62.7793810  68.9613660  50.9296740  61.9116070
  68.3961720  52.1081740  62.6755240  70.2431920  48.0550670  57.8683980
  70.1328250  47.1125000  57.9933400  70.2400170  48.4166310  58.7546740
  68.3471940  46.2364290  64.1076420  68.7640730  46.0224400  63.2729880
  69.0711760  46.4937080  64.6785040  65.7852200  43.6815990  57.2246470
  64.8581480  43.6153370  57.4534940  65.9377020  44.6196120  57.1101710
  65.7721280  39.9532990  54.2213630  64.8324950  40.1146950  54.3066090
  66.0904540  40.6718670  53.6749620  69.8149490  45.2436290  57.7281720
  69.1961910  44.9055840  57.0808020  69.7973940  44.5996050  58.4360910
  69.2576050  41.4220830  65.1447530  68.8447230  42.2474540  65.3987520
  68.5252000  40.8365870  64.9523890  61.3908840  44.2080730  60.0066200
  60.9865840  43.4957980  59.5112100  61.4771960  43.8633970  60.8954240
  61.8590540  47.8948290  62.1705410  61.5618830  47.2893760  61.4913190
  62.8090360  47.9325600  62.0594770  69.9476150  51.4680160  65.8328510
  69.4706710  52.2752350  65.6401120  69.2637940  50.8158490  65.9854720
  60.9508970  47.6329980  68.8213210  60.0537500  47.8569950  69.0686610
  60.9761840  47.7564920  67.8724610  67.9914190  44.4823100  54.7354470
  68.4307470  43.6445530  54.5892290  68.7042610  45.1152500  54.8218610
  66.1009570  49.4219170  58.7035710  66.5405480  50.1643500  58.2891100
  66.0396460  49.6645740  59.6274670  61.5760540  50.4465000  69.6055730
  61.5475970  50.8507950  68.7384160  61.4125510  49.5175360  69.4427330
  58.0913470  43.1025710  57.5072850  57.9711070  43.8287800  56.8954120
  57.7814360  42.3328620  57.0300760  56.9746470  47.9741040  59.7247670
  56.5674550  48.1155630  58.8701270  57.8659480  47.6901200  59.5218880
  66.7925350  52.1232950  66.6314720  67.3070020  52.0340960  67.4337150
  65.9494430  52.4692650  66.9242630  68.7679750  52.4088290  56.0598720
  68.6080890  52.1191230  56.9580550  68.6026460  51.6328420  55.5243950
  61.2468130  52.1886820  57.8370340  61.0710610  51.2722360  57.6238140
  60.3923870  52.5474110  58.0768140  68.4705880  49.9175850  54.6196720
  67.7771040  49.9153140  53.9599000  69.2128740  49.4935170  54.1890890
  68.0355810  51.5438560  58.6945210  68.4912760  50.7627940  59.0083830
  68.3748330  52.2545380  59.2386390  60.5577130  36.4460780  60.8896520
  60.1145280  37.2270320  60.5581040  61.1162120  36.7690670  61.5967460
  64.8446940  39.3129300  66.4931840  64.3826310  39.5212320  67.3051780
  64.4425050  38.4988650  66.1902510  69.8451450  40.5338250  67.6228500
  68.9945040  40.2344000  67.9437570  69.6853240  40.7780260  66.7112320
  66.9401160  42.0340000  69.7227290  67.2654570  41.2003750  69.3829520
  67.7281490  42.5568520  69.8705620  63.6735950  36.0671480  55.7702350
  63.0490130  36.0631350  56.4955660  63.5866070  35.2002440  55.3738320
  62.5953030  36.9908110  62.7486120  62.8925360  37.8970940  62.6678140
  63.1438590  36.5026890  62.1345690  60.3491350  41.5694350  58.6177770
  60.1232270  41.3531520  59.5224390  59.5683880  42.0022810  58.2723740
  67.5789110  41.5757720  57.2168420  66.9798000  42.2993520  57.0332040
  68.1268720  41.5134500  56.4344870  62.7890560  42.4679930  69.2838040
  62.6934160  41.5274660  69.1338440  63.6322540  42.6895000  68.8886110
  66.1853980  40.2121260  59.2471700  66.5783550  40.5293460  58.4340390
  66.5470830  39.3333140  59.3616220  64.4946150  38.9628570  70.5068560
  63.8044470  38.7700770  71.1414650  65.2378450  39.2463210  71.0392860
  66.7709120  42.8027010  63.3422480  66.0390240  43.3113820  63.6912580
  66.3733460  41.9856990  63.0411260  63.2086510  39.4781210  61.7474970
  63.2122570  39.0371160  60.8979510  64.1037630  39.7998540  61.8546790
  59.0588890  39.3607700  60.7069180  58.7188940  39.8382930  61.4636230
  58.2966210  38.9072820  60.3470280  63.2706660  40.4793290  54.7381730
  63.3919480  40.4379770  55.6867550  62.8855170  41.3417440  54.5828460
  67.2335030  38.2560690  62.7545420  67.2507770  38.7069340  63.5987270
  66.9850610  37.3566330  62.9678860  62.2828160  42.7894430  54.1365030
  61.7145060  42.3412680  53.5100940  62.9917160  43.1487210  53.6030180
  70.6605780  35.6692870  68.5931800  70.9851550  34.9382530  69.1189780
  70.6962290  35.3506510  67.6912790  63.5094480  43.5382990  63.4940380
  63.8764610  43.0641560  64.2401720  63.3199540  44.4124560  63.8348720
  61.2993850  42.5791630  65.8124590  60.9950920  43.4583610  66.0374950
  62.2540310  42.6391420  65.8482030  59.8275640  46.7852620  56.4091440
  59.0537900  46.2450240  56.2490160  60.5570270  46.2659230  56.0709200
  66.0473560  37.1755940  56.3447220  65.2338170  36.6769110  56.2692530
  65.8535510  38.0154190  55.9283570  65.9682420  45.8527040  68.0886830
  65.9019730  44.9322710  67.8344420  65.3387560  45.9502480  68.8031470
  68.7621950  41.5475590  54.6409380  69.6501570  41.8592820  54.4660720
  68.7327040  40.6747840  54.2489960  59.8713040  46.4533000  60.0470250
  60.3891710  45.6501260  59.9927140  59.4197060  46.3912140  60.8887080
  64.7582540  47.7199280  55.3197550  65.0998240  48.4641510  54.8240870
  63.9295250  48.0330400  55.6822380  60.5570700  43.8778610  69.8435500
  60.2570840  44.0235790  68.9463320  61.3281940  43.3183900  69.7508890
  65.8999150  48.6747610  67.8390630  65.9143690  47.7428570  67.6209540
  65.1924250  48.7607370  68.4780400  67.6409950  47.0415120  60.6843060
  67.9933770  46.4443250  60.0244430  66.7572280  46.7159350  60.8551310
  63.7273230  47.8012810  58.0913470  64.4144360  48.3482020  58.4721060
  62.9405650  48.3453540  58.1263080  55.8665630  43.4185630  53.5830550
  56.7360480  43.7010430  53.8666470  55.3755950  44.2321500  53.4679360
  63.0300440  44.8058840  57.7038830  63.4863220  45.6164090  57.9299020
  62.6788650  44.4881980  58.5357320  65.3333050  50.3165180  64.9331130
  65.9775270  50.5224560  65.6104550  65.6962490  49.5553580  64.4801980
  66.6065130  48.3197530  63.6508580  67.2487360  47.6190690  63.7640750
  67.1314480  49.0995970  63.4705470  70.4520850  48.6046150  53.3747720
  70.2258430  47.8876590  53.9672360  70.0617050  48.3558590  52.5369470
  68.3802750  49.1192430  66.8544640  68.7158990  49.7059120  67.5322560
  67.4603090  48.9885140  67.0842430  56.2336880  52.6313010  54.1492180
  56.5934520  53.2302350  53.4949450  56.0929220  53.1772900  54.9227210
  70.0337100  46.5218090  55.0361880  69.7458800  46.9830780  55.8239760
  70.8289270  46.0615860  55.3046100  64.2091330  49.1683760  70.0232700
  63.8888200  48.4493000  70.5678390  63.5349690  49.8438830  70.0968760
  62.2505500  50.0144210  54.9665850  62.2415600  50.7473900  54.3510360
  61.3303860  49.7675790  55.0592810  57.8512140  45.2359100  55.7112610
  57.2440090  45.9758000  55.7207910  58.3261490  45.3258460  54.8850810
  67.4244930  39.4009920  65.3869500  67.7925750  38.5805130  65.7149070
  66.5643130  39.4611810  65.8025150  70.7906960  38.3566860  56.1957060
  70.1620120  38.4612530  55.4815290  70.2958880  38.5763640  56.9850940
  65.2365100  50.0772450  53.6291040  65.3377080  49.8736440  52.6993020
  64.3366840  49.8230730  53.8338820  62.7590990  40.6352810  57.6114940
  62.0507140  41.1039150  58.0528550  63.0435470  39.9774820  58.2460130
  64.3846920  42.0549510  65.6107470  64.8832170  42.5295330  66.2759320
  64.5269870  41.1313030  65.8177500  66.7906420  37.3603470  59.0510730
  66.6674200  37.3789600  58.1020240  67.7390980  37.4082410  59.1709130
  63.8783210  52.5958770  58.3238710  64.1324710  52.5580160  57.4018080
  62.9295690  52.4692100  58.3166960  60.9626010  38.9437890  54.9865650
  61.8116540  39.3808040  54.9205840  60.5957280  39.2558150  55.8137710
  69.8835790  43.5150650  59.8997220  68.9425930  43.5300880  60.0744910
  70.1979860  42.7286610  60.3457520  59.8617430  45.1970250  53.4601180
  60.6280700  45.0851610  54.0226610  59.9392120  44.5008220  52.8077950
  58.5564190  42.6295320  54.1434070  58.6367780  41.6822830  54.2551470
  59.4483940  42.9602200  54.2494730  59.3578900  52.7790710  61.2468610
  60.0941380  52.2306170  61.5177180  59.7419820  53.6446720  61.1074600
  56.2424380  48.8464280  57.1210120  55.3164160  49.0885420  57.1115530
  56.7080810  49.6738540  56.9994870  58.3637180  51.9636780  70.4354190
  59.1649910  52.2848830  70.8489590  57.8489000  51.6032360  71.1574100
  62.4681210  51.9521020  53.0694180  63.2609820  52.2409850  52.6175970
  61.9485560  51.5213190  52.3906660  67.2001810  48.0716650  70.3829600
  66.5939970  48.0948250  69.6425350  66.8955920  47.3399690  70.9196850
  68.6302180  51.7996940  68.9939010  69.5823930  51.7154960  68.9439250
  68.4830400  52.4638650  69.6672800  62.9858610  47.1724430  52.9336530
  62.8809250  46.5576780  53.6597910  62.8182830  46.6490320  52.1499540
  63.1372930  45.8581230  68.9125760  62.3718600  46.4266230  68.8280430
  63.3188890  45.5657440  68.0193990  66.2261340  46.2344460  53.5378520
  65.6771440  46.6813760  54.1821260  66.8480600  45.7293710  54.0616190
  70.2796280  47.5886560  69.4700780  71.0205750  47.9262320  68.9668240
  69.5168960  47.7578620  68.9170550  61.8936460  45.1935380  55.4343820
  62.3152880  45.0275250  56.2775210  62.0187300  44.3835610  54.9398960
  60.0563880  41.1731930  68.2414800  59.5260340  40.6822880  67.6138140
  60.7251950  41.6016130  67.7072730  64.4064100  44.2172990  52.6820920
  64.9269760  43.5022010  52.3162070  65.0532500  44.8558860  52.9821430
  68.9541940  45.6401390  68.0055990  69.3682960  45.7946470  68.8546410
  68.0192940  45.7656610  68.1681770  69.4264110  42.9797550  70.0095140
  70.0084880  42.2249870  69.9215620  69.6025880  43.5104990  69.2326620
  60.5436180  38.1394300  68.3212090  60.4493050  37.5215050  67.5962960
  59.9633570  38.8660590  68.0942000  63.3097620  36.6967540  65.3539480
  62.8614920  36.7191800  64.5085030  62.6762820  36.2986560  65.9509780
  63.7157170  45.5921870  65.9751920  64.1345280  46.4354600  65.8028160
  62.7965800  45.7293910  65.7458700  66.0521070  43.3238050  67.3589760
  66.1717280  42.7279190  68.0984600  66.9115070  43.3607740  66.9391060
  68.3908970  43.8775240  65.9352270  67.8644190  44.4017860  65.3317410
  68.7340310  44.5102630  66.5662000  60.7895360  41.2668610  52.3801980
  60.5884420  40.4035970  52.7415320  60.6187410  41.1801970  51.4423580
  61.5664590  51.8974880  67.0909650  61.0285680  52.6220940  66.7718350
  61.8198550  51.4205220  66.3006990  62.8189840  39.8659400  68.6165580
  63.4089530  39.5575250  69.3043400  62.0010080  39.3939150  68.7725480
  67.6383270  39.4825210  68.8498600  66.9498790  38.8206750  68.7848590
  68.3589290  39.0363480  69.2947060  68.2683670  36.0776840  54.9088860
  68.5485960  35.2344740  55.2648280  67.4949400  36.3099950  55.4227610
  59.5878160  38.3669230  52.3679860  59.8904060  38.3736660  51.4599010
  60.3272750  38.0167090  52.8647520  64.4226800  53.1326090  67.3496300
  64.3485500  54.0361230  67.6568670  63.5205640  52.8137990  67.3218370
  62.8063090  37.3103850  53.3536060  62.4585090  36.6327840  52.7738510
  63.0075860  36.8493360  54.1679450  64.9712130  52.2984600  54.9722660
  65.8662920  52.6369570  54.9941420  65.0029760  51.5764010  54.3446940
  58.6108290  47.6711650  53.2009660  59.0483160  48.2141320  53.8567240
  59.0956020  46.8458600  53.2106000  55.8254090  50.4600680  60.6529920
  56.1557100  49.5921740  60.4208560  56.2545090  50.6659200  61.4834880
  60.4216010  48.7909690  58.3131890  60.1211550  48.6674660  59.2135800
  60.3153500  47.9318280  57.9047620  56.3144300  51.3271270  63.3911550
  55.8775290  51.5072070  64.2235700  56.8821980  52.0845890  63.2493270
  70.6358120  47.5540250  65.7765020  69.8217960  47.9837410  66.0390810
  71.0432320  48.1658660  65.1634070  69.0959170  38.6332790  53.9718920
  69.5144050  38.4463770  53.1315580  68.7895230  37.7811840  54.2821850
  57.5508180  36.1595300  52.6422790  58.2736310  36.7004240  52.9604010
  57.8232700  35.8858720  51.7664330  62.3002770  50.2936350  65.0533640
  62.0594130  50.5610910  64.1664160  63.2405410  50.4642080  65.1084500
  64.5057190  36.7569040  68.8090150  64.4446080  37.3490870  69.5585560
  65.4457570  36.6495000  68.6640410  67.1431750  36.4139100  68.4482440
  67.7572160  36.7318390  67.7863520  67.6881310  35.9287690  69.0678300
  58.4384770  51.6839010  66.5721700  57.8445090  51.5523710  67.3111740
  58.4308610  50.8477150  66.1063800  67.8839790  34.9771240  64.7751730
  67.0099630  35.3106350  64.5724660  67.7750540  34.5044420  65.6003600
  68.7911770  37.1842110  66.1593450  68.4625130  36.3693870  65.7795180
  69.7394070  37.1411920  66.0359140  58.0697000  49.0497390  65.5229740
  57.3431060  48.4302680  65.4555690  58.1306150  49.4438000  64.6527820
  61.6742100  51.2642390  62.3079150  62.1907120  50.6529750  61.7827410
  62.3239480  51.7671170  62.7990160  64.4137600  52.1550880  63.1348130
  64.7015410  51.9005180  62.2581140  64.9260820  51.6028240  63.7253700
  65.6314610  35.8941080  63.7144640  64.8486400  36.3686580  63.9941400
  65.3377540  34.9895910  63.6057820  70.1835680  36.5964180  61.7593730
  70.6243770  36.5409280  60.9115330  69.9143270  37.5122190  61.8303910
  56.3527000  52.3671780  58.7326500  56.1849040  51.7342460  59.4308390
  55.4861510  52.5731180  58.3820690  63.5168830  38.3127830  59.2260670
  62.7043340  37.9384720  58.8856550  64.0210470  37.5572910  59.5281860
  68.0193810  34.9770280  60.4643740  68.6223180  35.5490490  60.9392260
  67.2786800  35.5409720  60.2417640  57.9589700  51.0605010  56.1776640
  57.4337320  51.4413040  55.4738600  57.8834280  51.6855780  56.8986350
  59.3480170  36.7252610  54.7760330  59.8772930  35.9382410  54.6468280
  59.9808490  37.4043800  55.0095860  61.5418010  36.4627750  57.8305720
  60.9120750  35.7615060  57.9975850  61.0023150  37.2231880  57.6138880
  64.4809960  53.0766980  70.5016330  65.4077270  52.8411250  70.5452290
  64.4660390  53.9038980  70.0202360  61.6673570  35.7411730  70.2658210
  61.3857840  36.2445330  69.5019030  62.0493270  34.9433480  69.9000340
  60.5582670  53.0087390  55.0525890  61.2901490  52.7246670  54.5049780
  60.8176340  52.7700670  55.9425270  59.7197460  49.1252120  55.0572220
  59.0906340  49.5937220  55.6058050  59.8345290  48.2801340  55.4918410
  68.2689030  35.1565310  70.8438680  68.1554480  35.4759920  71.7390200
  69.0858770  35.5577820  70.5475960  67.1747180  43.1757780  41.2073420
  67.0941230  42.2612390  40.9365130  66.7611600  43.6724850  40.5013130
  65.3065220  44.9536800  43.0882690  64.5307320  44.4737240  43.3781260
  65.9578150  44.2742450  42.9138850  59.3231050  45.2656610  43.9658450
  58.4915930  45.0105320  44.3654960  59.9312030  45.3367380  44.7016370
  69.3272650  49.3596990  41.8681820  68.8654180  48.5884230  42.1968990
  70.1398200  49.3863060  42.3734270  59.3032310  49.2996700  44.1616470
  59.6060350  48.4094440  43.9826690  60.0475900  49.8566920  43.9338720
  57.7323000  40.2258500  37.7500840  56.8439700  40.5674470  37.6480720
  58.0164190  40.0258820  36.8581670  65.5535960  51.6455000  41.4885810
  64.9347400  52.1012500  40.9180250  66.4087740  51.8006460  41.0875510
  64.7474210  47.6293990  43.0952850  64.6782490  46.6883930  42.9341980
  65.5094070  47.7195400  43.6675420  65.7779380  40.4364370  43.3221780
  66.1544200  39.5636250  43.2095450  65.6798890  40.7723070  42.4312220
  59.9084390  38.8090000  38.7839220  60.0151140  39.7093730  39.0907980
  58.9976750  38.7607970  38.4933870  69.5603500  37.9314810  40.2550120
  70.3813120  37.4411380  40.2975600  69.5937580  38.5212470  41.0081960
  61.7492120  41.7776370  43.1164400  62.2570340  42.2757340  43.7569420
  62.2805360  41.0011570  42.9403760  60.0328220  36.4174930  47.3827820
  60.0346660  36.9347320  46.5773720  59.2032530  35.9405110  47.3597750
  66.4199310  46.5294240  38.8817720  65.8016580  46.9943690  38.3180440
  66.9322560  47.2221720  39.2987230  61.2831070  46.0570110  45.5601320
  60.9500450  46.6839030  46.2022390  61.4597750  46.5831990  44.7802990
  69.7964980  39.8715190  43.0277660  69.0920550  40.1600080  43.6080770
  70.1577140  40.6815300  42.6677220  60.4950170  48.0250910  47.3750500
  61.1124170  48.7001990  47.0934950  59.6343290  48.4338890  47.2838000
  55.7882510  47.2150770  36.2557350  55.4110490  47.7037870  35.5242250
  56.0455580  47.8876050  36.8863880  63.3971440  35.6167160  41.7142860
  63.7046420  35.0614050  40.9978360  62.4672140  35.7511620  41.5315850
  68.9486500  51.3334450  44.0050320  68.9613660  50.9296740  43.1372580
  68.3961720  52.1081740  43.9011750  70.2431920  48.0550670  39.0940490
  70.1328250  47.1125000  39.2189910  70.2400170  48.4166310  39.9803250
  68.3471940  46.2364290  45.3332930  68.7640730  46.0224400  44.4986390
  69.0711760  46.4937080  45.9041550  65.7852200  43.6815990  38.4502980
  64.8581480  43.6153370  38.6791450  65.9377020  44.6196120  38.3358220
  65.7721280  39.9532990  35.4470140  64.8324950  40.1146950  35.5322600
  66.0904540  40.6718670  34.9006130  69.8149490  45.2436290  38.9538230
  69.1961910  44.9055840  38.3064530  69.7973940  44.5996050  39.6617420
  69.2576050  41.4220830  46.3704040  68.8447230  42.2474540  46.6244030
  68.5252000  40.8365870  46.1780400  61.3908840  44.2080730  41.2322710
  60.9865840  43.4957980  40.7368610  61.4771960  43.8633970  42.1210750
  61.8590540  47.8948290  43.3961920  61.5618830  47.2893760  42.7169700
  62.8090360  47.9325600  43.2851280  69.9476150  51.4680160  47.0585020
  69.4706710  52.2752350  46.8657630  69.2637940  50.8158490  47.2111230
  60.9508970  47.6329980  50.0469720  60.0537500  47.8569950  50.2943120
  60.9761840  47.7564920  49.0981120  67.9914190  44.4823100  35.9610980
  68.4307470  43.6445530  35.8148800  68.7042610  45.1152500  36.0475120
  59.7780190  44.5043300  48.6227090  59.6387960  45.3766100  48.9914490
  58.8961550  44.1616110  48.4775030  66.1009570  49.4219170  39.9292220
  66.5405480  50.1643500  39.5147610  66.0396460  49.6645740  40.8531180
  61.5760540  50.4465000  50.8312240  61.5475970  50.8507950  49.9640670
  61.4125510  49.5175360  50.6683840  58.0913470  43.1025710  38.7329360
  57.9711070  43.8287800  38.1210630  57.7814360  42.3328620  38.2557270
  55.7298840  46.2740850  44.5398000  55.8079260  46.4089620  43.5953720
  56.3440520  45.5656740  44.7326120  56.9746470  47.9741040  40.9504180
  56.5674550  48.1155630  40.0957780  57.8659480  47.6901200  40.7475390
  66.7925350  52.1232950  47.8571230  67.3070020  52.0340960  48.6593660
  65.9494430  52.4692650  48.1499140  68.7679750  52.4088290  37.2855230
  68.6080890  52.1191230  38.1837060  68.6026460  51.6328420  36.7500460
  61.2468130  52.1886820  39.0626850  61.0710610  51.2722360  38.8494650
  60.3923870  52.5474110  39.3024650  68.4705880  49.9175850  35.8453230
  67.7771040  49.9153140  35.1855510  69.2128740  49.4935170  35.4147400
  68.0355810  51.5438560  39.9201720  68.4912760  50.7627940  40.2340340
  68.3748330  52.2545380  40.4642900  55.7858360  47.3155020  47.0792460
  55.9489400  46.8460380  46.2611830  56.2510810  46.8078580  47.7441300
  60.5577130  36.4460780  42.1153030  60.1145280  37.2270320  41.7837550
  61.1162120  36.7690670  42.8223970  64.8446940  39.3129300  47.7188350
  64.3826310  39.5212320  48.5308290  64.4425050  38.4988650  47.4159020
  69.8451450  40.5338250  48.8485010  68.9945040  40.2344000  49.1694080
  69.6853240  40.7780260  47.9368830  66.9401160  42.0340000  50.9483800
  67.2654570  41.2003750  50.6086030  67.7281490  42.5568520  51.0962130
  63.6735950  36.0671480  36.9958860  63.0490130  36.0631350  37.7212170
  63.5866070  35.2002440  36.5994830  62.5953030  36.9908110  43.9742630
  62.8925360  37.8970940  43.8934650  63.1438590  36.5026890  43.3602200
  60.3491350  41.5694350  39.8434280  60.1232270  41.3531520  40.7480900
  59.5683880  42.0022810  39.4980250  67.5789110  41.5757720  38.4424930
  66.9798000  42.2993520  38.2588550  68.1268720  41.5134500  37.6601380
  62.7890560  42.4679930  50.5094550  62.6934160  41.5274660  50.3594950
  63.6322540  42.6895000  50.1142620  66.1853980  40.2121260  40.4728210
  66.5783550  40.5293460  39.6596900  66.5470830  39.3333140  40.5872730
  64.4946150  38.9628570  51.7325070  63.8044470  38.7700770  52.3671160
  65.2378450  39.2463210  52.2649370  55.4088380  40.7442180  33.9061130
  55.3263050  41.6872940  34.0476120  55.0571440  40.6017090  33.0273480
  66.7709120  42.8027010  44.5678990  66.0390240  43.3113820  44.9169090
  66.3733460  41.9856990  44.2667770  63.2086510  39.4781210  42.9731480
  63.2122570  39.0371160  42.1236020  64.1037630  39.7998540  43.0803300
  63.2706660  40.4793290  35.9638240  63.3919480  40.4379770  36.9124060
  62.8855170  41.3417440  35.8084970  67.2335030  38.2560690  43.9801930
  67.2507770  38.7069340  44.8243780  66.9850610  37.3566330  44.1935370
  62.2828160  42.7894430  35.3621540  61.7145060  42.3412680  34.7357450
  62.9917160  43.1487210  34.8286690  70.6605780  35.6692870  49.8188310
  70.9851550  34.9382530  50.3446290  70.6962290  35.3506510  48.9169300
  57.3597340  46.6906450  49.2388270  56.9752130  46.0500120  49.8371230
  57.6709530  47.3942570  49.8083000  63.5094480  43.5382990  44.7196890
  63.8764610  43.0641560  45.4658230  63.3199540  44.4124560  45.0605230
  61.2993850  42.5791630  47.0381100  60.9950920  43.4583610  47.2631460
  62.2540310  42.6391420  47.0738540  59.8275640  46.7852620  37.6347950
  59.0537900  46.2450240  37.4746670  60.5570270  46.2659230  37.2965710
  66.0473560  37.1755940  37.5703730  65.2338170  36.6769110  37.4949040
  65.8535510  38.0154190  37.1540080  65.9682420  45.8527040  49.3143340
  65.9019730  44.9322710  49.0600930  65.3387560  45.9502480  50.0287980
  68.7621950  41.5475590  35.8665890  69.6501570  41.8592820  35.6917230
  68.7327040  40.6747840  35.4746470  59.8713040  46.4533000  41.2726760
  60.3891710  45.6501260  41.2183650  59.4197060  46.3912140  42.1143590
  64.7582540  47.7199280  36.5454060  65.0998240  48.4641510  36.0497380
  63.9295250  48.0330400  36.9078890  60.5570700  43.8778610  51.0692010
  60.2570840  44.0235790  50.1719830  61.3281940  43.3183900  50.9765400
  65.8999150  48.6747610  49.0647140  65.9143690  47.7428570  48.8466050
  65.1924250  48.7607370  49.7036910  67.6409950  47.0415120  41.9099570
  67.9933770  46.4443250  41.2500940  66.7572280  46.7159350  42.0807820
  63.7273230  47.8012810  39.3169980  64.4144360  48.3482020  39.6977570
  62.9405650  48.3453540  39.3519590  55.8665630  43.4185630  34.8087060
  56.7360480  43.7010430  35.0922980  55.3755950  44.2321500  34.6935870
  63.0300440  44.8058840  38.9295340  63.4863220  45.6164090  39.1555530
  62.6788650  44.4881980  39.7613830  65.3333050  50.3165180  46.1587640
  65.9775270  50.5224560  46.8361060  65.6962490  49.5553580  45.7058490
  66.6065130  48.3197530  44.8765090  67.2487360  47.6190690  44.9897260
  67.1314480  49.0995970  44.6961980  70.4520850  48.6046150  34.6004230
  70.2258430  47.8876590  35.1928870  70.0617050  48.3558590  33.7625980
  68.3802750  49.1192430  48.0801150  68.7158990  49.7059120  48.7579070
  67.4603090  48.9885140  48.3098940  56.2336880  52.6313010  35.3748690
  56.5934520  53.2302350  34.7205960  56.0929220  53.1772900  36.1483720
  70.0337100  46.5218090  36.2618390  69.7458800  46.9830780  37.0496270
  70.8289270  46.0615860  36.5302610  56.2178740  50.8967870  49.8491090
  56.3269860  49.9562610  49.7086480  55.5659300  51.1622620  49.2004820
  64.2091330  49.1683760  51.2489210  63.8888200  48.4493000  51.7934900
  63.5349690  49.8438830  51.3225270  62.2505500  50.0144210  36.1922360
  62.2415600  50.7473900  35.5766870  61.3303860  49.7675790  36.2849320
  57.8512140  45.2359100  36.9369120  57.2440090  45.9758000  36.9464420
  58.3261490  45.3258460  36.1107320  67.4244930  39.4009920  46.6126010
  67.7925750  38.5805130  46.9405580  66.5643130  39.4611810  47.0281660
  70.7906960  38.3566860  37.4213570  70.1620120  38.4612530  36.7071800
  70.2958880  38.5763640  38.2107450  65.2365100  50.0772450  34.8547550
  65.3377080  49.8736440  33.9249530  64.3366840  49.8230730  35.0595330
  62.7590990  40.6352810  38.8371450  62.0507140  41.1039150  39.2785060
  63.0435470  39.9774820  39.4716640  64.3846920  42.0549510  46.8363980
  64.8832170  42.5295330  47.5015830  64.5269870  41.1313030  47.0434010
  66.7906420  37.3603470  40.2767240  66.6674200  37.3789600  39.3276750
  67.7390980  37.4082410  40.3965640  63.8783210  52.5958770  39.5495220
  64.1324710  52.5580160  38.6274590  62.9295690  52.4692100  39.5423470
  60.9626010  38.9437890  36.2122160  61.8116540  39.3808040  36.1462350
  60.5957280  39.2558150  37.0394220  69.8835790  43.5150650  41.1253730
  68.9425930  43.5300880  41.3001420  70.1979860  42.7286610  41.5714030
  59.8617430  45.1970250  34.6857690  60.6280700  45.0851610  35.2483120
  59.9392120  44.5008220  34.0334460  58.5564190  42.6295320  35.3690580
  58.6367780  41.6822830  35.4807980  59.4483940  42.9602200  35.4751240
  59.3578900  52.7790710  42.4725120  60.0941380  52.2306170  42.7433690
  59.7419820  53.6446720  42.3331110  56.2424380  48.8464280  38.3466630
  55.3164160  49.0885420  38.3372040  56.7080810  49.6738540  38.2251380
  58.3637180  51.9636780  51.6610700  59.1649910  52.2848830  52.0746100
  57.8489000  51.6032360  52.3830610  62.4681210  51.9521020  34.2950690
  63.2609820  52.2409850  33.8432480  61.9485560  51.5213190  33.6163170
  67.2001810  48.0716650  51.6086110  66.5939970  48.0948250  50.8681860
  66.8955920  47.3399690  52.1453360  68.6302180  51.7996940  50.2195520
  69.5823930  51.7154960  50.1695760  68.4830400  52.4638650  50.8929310
  56.0834990  44.4510240  50.6046750  56.5874010  43.8717520  51.1762980
  55.3442410  44.7350470  51.1423120  62.9858610  47.1724430  34.1593040
  62.8809250  46.5576780  34.8854420  62.8182830  46.6490320  33.3756050
  63.1372930  45.8581230  50.1382270  62.3718600  46.4266230  50.0536940
  63.3188890  45.5657440  49.2450500  66.2261340  46.2344460  34.7635030
  65.6771440  46.6813760  35.4077770  66.8480600  45.7293710  35.2872700
  70.2796280  47.5886560  50.6957290  71.0205750  47.9262320  50.1924750
  69.5168960  47.7578620  50.1427060  58.1158070  42.5939830  51.4996820
  58.1563410  42.2953700  52.4082050  58.9703570  42.9947440  51.3404340
  61.8936460  45.1935380  36.6600330  62.3152880  45.0275250  37.5031720
  62.0187300  44.3835610  36.1655470  60.0563880  41.1731930  49.4671310
  59.5260340  40.6822880  48.8394650  60.7251950  41.6016130  48.9329240
  64.4064100  44.2172990  33.9077430  64.9269760  43.5022010  33.5418580
  65.0532500  44.8558860  34.2077940  68.9541940  45.6401390  49.2312500
  69.3682960  45.7946470  50.0802920  68.0192940  45.7656610  49.3938280
  69.4264110  42.9797550  51.2351650  70.0084880  42.2249870  51.1472130
  69.6025880  43.5104990  50.4583130  60.5436180  38.1394300  49.5468600
  60.4493050  37.5215050  48.8219470  59.9633570  38.8660590  49.3198510
  63.3097620  36.6967540  46.5795990  62.8614920  36.7191800  45.7341540
  62.6762820  36.2986560  47.1766290  63.7157170  45.5921870  47.2008430
  64.1345280  46.4354600  47.0284670  62.7965800  45.7293910  46.9715210
  66.0521070  43.3238050  48.5846270  66.1717280  42.7279190  49.3241110
  66.9115070  43.3607740  48.1647570  68.3908970  43.8775240  47.1608780
  67.8644190  44.4017860  46.5573920  68.7340310  44.5102630  47.7918510
  60.7895360  41.2668610  33.6058490  60.5884420  40.4035970  33.9671830
  60.6187410  41.1801970  32.6680090  61.5664590  51.8974880  48.3166160
  61.0285680  52.6220940  47.9974860  61.8198550  51.4205220  47.5263500
  62.8189840  39.8659400  49.8422090  63.4089530  39.5575250  50.5299910
  62.0010080  39.3939150  49.9981990  67.6383270  39.4825210  50.0755110
  66.9498790  38.8206750  50.0105100  68.3589290  39.0363480  50.5203570
  68.2683670  36.0776840  36.1345370  68.5485960  35.2344740  36.4904790
  67.4949400  36.3099950  36.6484120  59.5878160  38.3669230  33.5936370
  59.8904060  38.3736660  32.6855520  60.3272750  38.0167090  34.0904030
  64.4226800  53.1326090  48.5752810  64.3485500  54.0361230  48.8825180
  63.5205640  52.8137990  48.5474880  62.8063090  37.3103850  34.5792570
  62.4585090  36.6327840  33.9995020  63.0075860  36.8493360  35.3935960
  64.9712130  52.2984600  36.1979170  65.8662920  52.6369570  36.2197930
  65.0029760  51.5764010  35.5703450  58.6108290  47.6711650  34.4266170
  59.0483160  48.2141320  35.0823750  59.0956020  46.8458600  34.4362510
  55.8254090  50.4600680  41.8786430  56.1557100  49.5921740  41.6465070
  56.2545090  50.6659200  42.7091390  60.4216010  48.7909690  39.5388400
  60.1211550  48.6674660  40.4392310  60.3153500  47.9318280  39.1304130
  56.3144300  51.3271270  44.6168060  55.8775290  51.5072070  45.4492210
  56.8821980  52.0845890  44.4749780  56.1468730  43.8391500  40.9756940
  55.4917570  43.5703140  40.3316640  56.9846680  43.7295980  40.5258920
  70.6358120  47.5540250  47.0021530  69.8217960  47.9837410  47.2647320
  71.0432320  48.1658660  46.3890580  69.0959170  38.6332790  35.1975430
  69.5144050  38.4463770  34.3572090  68.7895230  37.7811840  35.5078360
  55.3606810  41.0490430  36.9182270  54.4570890  41.3120630  36.7433930
  55.8447430  41.3201600  36.1382230  57.9034020  40.1055970  34.8276650
  58.6125720  39.6839190  34.3423930  57.1873960  40.1731200  34.1960000
  57.5508180  36.1595300  33.8679300  58.2736310  36.7004240  34.1860520
  57.8232700  35.8858720  32.9920840  58.5996740  48.7376760  50.6780430
  58.5566370  48.3669670  51.5594890  58.7307750  49.6754330  50.8182250
  62.3002770  50.2936350  46.2790150  62.0594130  50.5610910  45.3920670
  63.2405410  50.4642080  46.3341010  64.5057190  36.7569040  50.0346660
  64.4446080  37.3490870  50.7842070  65.4457570  36.6495000  49.8896920
  67.1431750  36.4139100  49.6738950  67.7572160  36.7318390  49.0120030
  67.6881310  35.9287690  50.2934810  57.6653010  35.0933360  49.7878010
  58.2136000  34.9121410  49.0244120  57.7308320  34.3027470  50.3234320
  58.4384770  51.6839010  47.7978210  57.8445090  51.5523710  48.5368250
  58.4308610  50.8477150  47.3320310  67.8839790  34.9771240  46.0008240
  67.0099630  35.3106350  45.7981170  67.7750540  34.5044420  46.8260110
  68.7911770  37.1842110  47.3849960  68.4625130  36.3693870  47.0051690
  69.7394070  37.1411920  47.2615650  58.0697000  49.0497390  46.7486250
  57.3431060  48.4302680  46.6812200  58.1306150  49.4438000  45.8784330
  61.6742100  51.2642390  43.5335660  62.1907120  50.6529750  43.0083920
  62.3239480  51.7671170  44.0246670  64.4137600  52.1550880  44.3604640
  64.7015410  51.9005180  43.4837650  64.9260820  51.6028240  44.9510210
  65.6314610  35.8941080  44.9401150  64.8486400  36.3686580  45.2197910
  65.3377540  34.9895910  44.8314330  70.1835680  36.5964180  42.9850240
  70.6243770  36.5409280  42.1371840  69.9143270  37.5122190  43.0560420
  56.3527000  52.3671780  39.9583010  56.1849040  51.7342460  40.6564900
  55.4861510  52.5731180  39.6077200  63.5168830  38.3127830  40.4517180
  62.7043340  37.9384720  40.1113060  64.0210470  37.5572910  40.7538370
  68.0193810  34.9770280  41.6900250  68.6223180  35.5490490  42.1648770
  67.2786800  35.5409720  41.4674150  57.9589700  51.0605010  37.4033150
  57.4337320  51.4413040  36.6995110  57.8834280  51.6855780  38.1242860
  59.3480170  36.7252610  36.0016840  59.8772930  35.9382410  35.8724790
  59.9808490  37.4043800  36.2352370  61.5418010  36.4627750  39.0562230
  60.9120750  35.7615060  39.2232360  61.0023150  37.2231880  38.8395390
  64.4809960  53.0766980  51.7272840  65.4077270  52.8411250  51.7708800
  64.4660390  53.9038980  51.2458870  61.6673570  35.7411730  51.4914720
  61.3857840  36.2445330  50.7275540  62.0493270  34.9433480  51.1256850
  60.5582670  53.0087390  36.2782400  61.2901490  52.7246670  35.7306290
  60.8176340  52.7700670  37.1681780  59.7197460  49.1252120  36.2828730
  59.0906340  49.5937220  36.8314560  59.8345290  48.2801340  36.7174920
  68.2689030  35.1565310  52.0695190  68.1554480  35.4759920  52.9646710
  69.0858770  35.5577820  51.7732470  67.1747180  43.1757780  22.4329930
  67.0941230  42.2612390  22.1621640  66.7611600  43.6724850  21.7269640
  65.3065220  44.9536800  24.3139200  64.5307320  44.4737240  24.6037770
  65.9578150  44.2742450  24.1395360  59.3231050  45.2656610  25.1914960
  58.4915930  45.0105320  25.5911470  59.9312030  45.3367380  25.9272880
  69.3272650  49.3596990  23.0938330  68.8654180  48.5884230  23.4225500
  70.1398200  49.3863060  23.5990780  59.3032310  49.2996700  25.3872980
  59.6060350  48.4094440  25.2083200  60.0475900  49.8566920  25.1595230
  57.7323000  40.2258500  18.9757350  56.8439700  40.5674470  18.8737230
  58.0164190  40.0258820  18.0838180  55.6956010  42.8264150  24.8597050
  56.2672120  42.0586350  24.8600690  55.6957550  43.1252910  23.9503660
  65.5535960  51.6455000  22.7142320  64.9347400  52.1012500  22.1436760
  66.4087740  51.8006460  22.3132020  64.7474210  47.6293990  24.3209360
  64.6782490  46.6883930  24.1598490  65.5094070  47.7195400  24.8931930
  56.9380880  38.2348510  26.6465980  56.7583720  37.3374260  26.9268740
  56.5360960  38.7820380  27.3212930  65.7779380  40.4364370  24.5478290
  66.1544200  39.5636250  24.4351960  65.6798890  40.7723070  23.6568730
  59.9084390  38.8090000  20.0095730  60.0151140  39.7093730  20.3164490
  58.9976750  38.7607970  19.7190380  69.5603500  37.9314810  21.4806630
  70.3813120  37.4411380  21.5232110  69.5937580  38.5212470  22.2338470
  57.5567550  40.7309010  25.2548320  58.2377660  40.9947380  25.8735720
  57.2415600  39.8909880  25.5886330  61.7492120  41.7776370  24.3420910
  62.2570340  42.2757340  24.9825930  62.2805360  41.0011570  24.1660270
  60.0328220  36.4174930  28.6084330  60.0346660  36.9347320  27.8030230
  59.2032530  35.9405110  28.5854260  66.4199310  46.5294240  20.1074230
  65.8016580  46.9943690  19.5436950  66.9322560  47.2221720  20.5243740
  61.2831070  46.0570110  26.7857830  60.9500450  46.6839030  27.4278900
  61.4597750  46.5831990  26.0059500  69.7964980  39.8715190  24.2534170
  69.0920550  40.1600080  24.8337280  70.1577140  40.6815300  23.8933730
  59.7143550  38.1284890  26.6154780  60.0560360  38.9726940  26.3208650
  58.7759360  38.2768630  26.7320120  60.4950170  48.0250910  28.6007010
  61.1124170  48.7001990  28.3191460  59.6343290  48.4338890  28.5094510
  55.7882510  47.2150770  17.4813860  55.4110490  47.7037870  16.7498760
  56.0455580  47.8876050  18.1120390  63.3971440  35.6167160  22.9399370
  63.7046420  35.0614050  22.2234870  62.4672140  35.7511620  22.7572360
  68.9486500  51.3334450  25.2306830  68.9613660  50.9296740  24.3629090
  68.3961720  52.1081740  25.1268260  70.2431920  48.0550670  20.3197000
  70.1328250  47.1125000  20.4446420  70.2400170  48.4166310  21.2059760
  68.3471940  46.2364290  26.5589440  68.7640730  46.0224400  25.7242900
  69.0711760  46.4937080  27.1298060  65.7852200  43.6815990  19.6759490
  64.8581480  43.6153370  19.9047960  65.9377020  44.6196120  19.5614730
  65.7721280  39.9532990  16.6726650  64.8324950  40.1146950  16.7579110
  66.0904540  40.6718670  16.1262640  69.8149490  45.2436290  20.1794740
  69.1961910  44.9055840  19.5321040  69.7973940  44.5996050  20.8873930
  69.2576050  41.4220830  27.5960550  68.8447230  42.2474540  27.8500540
  68.5252000  40.8365870  27.4036910  61.3908840  44.2080730  22.4579220
  60.9865840  43.4957980  21.9625120  61.4771960  43.8633970  23.3467260
  61.8590540  47.8948290  24.6218430  61.5618830  47.2893760  23.9426210
  62.8090360  47.9325600  24.5107790  60.1037460  40.9823940  26.2378260
  60.6552050  41.0919280  25.4631510  60.6180970  41.3561540  26.9533490
  69.9476150  51.4680160  28.2841530  69.4706710  52.2752350  28.0914140
  69.2637940  50.8158490  28.4367740  60.9508970  47.6329980  31.2726230
  60.0537500  47.8569950  31.5199630  60.9761840  47.7564920  30.3237630
  67.9914190  44.4823100  17.1867490  68.4307470  43.6445530  17.0405310
  68.7042610  45.1152500  17.2731630  59.7780190  44.5043300  29.8483600
  59.6387960  45.3766100  30.2171000  58.8961550  44.1616110  29.7031540
  66.1009570  49.4219170  21.1548730  66.5405480  50.1643500  20.7404120
  66.0396460  49.6645740  22.0787690  61.5760540  50.4465000  32.0568750
  61.5475970  50.8507950  31.1897180  61.4125510  49.5175360  31.8940350
  58.0913470  43.1025710  19.9585870  57.9711070  43.8287800  19.3467140
  57.7814360  42.3328620  19.4813780  55.7298840  46.2740850  25.7654510
  55.8079260  46.4089620  24.8210230  56.3440520  45.5656740  25.9582630
  56.9746470  47.9741040  22.1760690  56.5674550  48.1155630  21.3214290
  57.8659480  47.6901200  21.9731900  66.7925350  52.1232950  29.0827740
  67.3070020  52.0340960  29.8850170  65.9494430  52.4692650  29.3755650
  68.7679750  52.4088290  18.5111740  68.6080890  52.1191230  19.4093570
  68.6026460  51.6328420  17.9756970  61.2468130  52.1886820  20.2883360
  61.0710610  51.2722360  20.0751160  60.3923870  52.5474110  20.5281160
  68.4705880  49.9175850  17.0709740  67.7771040  49.9153140  16.4112020
  69.2128740  49.4935170  16.6403910  68.0355810  51.5438560  21.1458230
  68.4912760  50.7627940  21.4596850  68.3748330  52.2545380  21.6899410
  55.7858360  47.3155020  28.3048970  55.9489400  46.8460380  27.4868340
  56.2510810  46.8078580  28.9697810  64.8446940  39.3129300  28.9444860
  64.3826310  39.5212320  29.7564800  64.4425050  38.4988650  28.6415530
  69.8451450  40.5338250  30.0741520  68.9945040  40.2344000  30.3950590
  69.6853240  40.7780260  29.1625340  66.9401160  42.0340000  32.1740310
  67.2654570  41.2003750  31.8342540  67.7281490  42.5568520  32.3218640
  63.6735950  36.0671480  18.2215370  63.0490130  36.0631350  18.9468680
  63.5866070  35.2002440  17.8251340  62.5953030  36.9908110  25.1999140
  62.8925360  37.8970940  25.1191160  63.1438590  36.5026890  24.5858710
  60.3491350  41.5694350  21.0690790  60.1232270  41.3531520  21.9737410
  59.5683880  42.0022810  20.7236760  67.5789110  41.5757720  19.6681440
  66.9798000  42.2993520  19.4845060  68.1268720  41.5134500  18.8857890
  62.7890560  42.4679930  31.7351060  62.6934160  41.5274660  31.5851460
  63.6322540  42.6895000  31.3399130  66.1853980  40.2121260  21.6984720
  66.5783550  40.5293460  20.8853410  66.5470830  39.3333140  21.8129240
  57.9201100  38.8793600  29.8884840  57.5264490  39.7268810  30.0957620
  57.2319500  38.2419970  30.0793480  64.4946150  38.9628570  32.9581580
  63.8044470  38.7700770  33.5927670  65.2378450  39.2463210  33.4905880
  55.4088380  40.7442180  15.1317640  55.3263050  41.6872940  15.2732630
  55.0571440  40.6017090  14.2529990  66.7709120  42.8027010  25.7935500
  66.0390240  43.3113820  26.1425600  66.3733460  41.9856990  25.4924280
  63.2086510  39.4781210  24.1987990  63.2122570  39.0371160  23.3492530
  64.1037630  39.7998540  24.3059810  59.0588890  39.3607700  23.1582200
  58.7188940  39.8382930  23.9149250  58.2966210  38.9072820  22.7983300
  63.2706660  40.4793290  17.1894750  63.3919480  40.4379770  18.1380570
  62.8855170  41.3417440  17.0341480  67.2335030  38.2560690  25.2058440
  67.2507770  38.7069340  26.0500290  66.9850610  37.3566330  25.4191880
  62.2828160  42.7894430  16.5878050  61.7145060  42.3412680  15.9613960
  62.9917160  43.1487210  16.0543200  70.6605780  35.6692870  31.0444820
  70.9851550  34.9382530  31.5702800  70.6962290  35.3506510  30.1425810
  57.3597340  46.6906450  30.4644780  56.9752130  46.0500120  31.0627740
  57.6709530  47.3942570  31.0339510  63.5094480  43.5382990  25.9453400
  63.8764610  43.0641560  26.6914740  63.3199540  44.4124560  26.2861740
  61.2993850  42.5791630  28.2637610  60.9950920  43.4583610  28.4887970
  62.2540310  42.6391420  28.2995050  59.8275640  46.7852620  18.8604460
  59.0537900  46.2450240  18.7003180  60.5570270  46.2659230  18.5222220
  66.0473560  37.1755940  18.7960240  65.2338170  36.6769110  18.7205550
  65.8535510  38.0154190  18.3796590  65.9682420  45.8527040  30.5399850
  65.9019730  44.9322710  30.2857440  65.3387560  45.9502480  31.2544490
  68.7621950  41.5475590  17.0922400  69.6501570  41.8592820  16.9173740
  68.7327040  40.6747840  16.7002980  59.8713040  46.4533000  22.4983270
  60.3891710  45.6501260  22.4440160  59.4197060  46.3912140  23.3400100
  64.7582540  47.7199280  17.7710570  65.0998240  48.4641510  17.2753890
  63.9295250  48.0330400  18.1335400  57.3557580  43.4194370  29.4108970
  56.9972520  44.0848220  29.9982310  57.0612140  42.5877920  29.7821590
  60.5570700  43.8778610  32.2948520  60.2570840  44.0235790  31.3976340
  61.3281940  43.3183900  32.2021910  65.8999150  48.6747610  30.2903650
  65.9143690  47.7428570  30.0722560  65.1924250  48.7607370  30.9293420
  67.6409950  47.0415120  23.1356080  67.9933770  46.4443250  22.4757450
  66.7572280  46.7159350  23.3064330  63.7273230  47.8012810  20.5426490
  64.4144360  48.3482020  20.9234080  62.9405650  48.3453540  20.5776100
  55.8665630  43.4185630  16.0343570  56.7360480  43.7010430  16.3179490
  55.3755950  44.2321500  15.9192380  63.0300440  44.8058840  20.1551850
  63.4863220  45.6164090  20.3812040  62.6788650  44.4881980  20.9870340
  65.3333050  50.3165180  27.3844150  65.9775270  50.5224560  28.0617570
  65.6962490  49.5553580  26.9315000  66.6065130  48.3197530  26.1021600
  67.2487360  47.6190690  26.2153770  67.1314480  49.0995970  25.9218490
  70.4520850  48.6046150  15.8260740  70.2258430  47.8876590  16.4185380
  70.0617050  48.3558590  14.9882490  68.3802750  49.1192430  29.3057660
  68.7158990  49.7059120  29.9835580  67.4603090  48.9885140  29.5355450
  56.2336880  52.6313010  16.6005200  56.5934520  53.2302350  15.9462470
  56.0929220  53.1772900  17.3740230  55.9306150  36.9087610  30.0881070
  55.2164670  37.1084530  30.6933680  56.3501190  36.1327180  30.4595870
  70.0337100  46.5218090  17.4874900  69.7458800  46.9830780  18.2752780
  70.8289270  46.0615860  17.7559120  56.2178740  50.8967870  31.0747600
  56.3269860  49.9562610  30.9342990  55.5659300  51.1622620  30.4261330
  64.2091330  49.1683760  32.4745720  63.8888200  48.4493000  33.0191410
  63.5349690  49.8438830  32.5481780  62.2505500  50.0144210  17.4178870
  62.2415600  50.7473900  16.8023380  61.3303860  49.7675790  17.5105830
  57.8512140  45.2359100  18.1625630  57.2440090  45.9758000  18.1720930
  58.3261490  45.3258460  17.3363830  67.4244930  39.4009920  27.8382520
  67.7925750  38.5805130  28.1662090  66.5643130  39.4611810  28.2538170
  70.7906960  38.3566860  18.6470080  70.1620120  38.4612530  17.9328310
  70.2958880  38.5763640  19.4363960  65.2365100  50.0772450  16.0804060
  65.3377080  49.8736440  15.1506040  64.3366840  49.8230730  16.2851840
  62.7590990  40.6352810  20.0627960  62.0507140  41.1039150  20.5041570
  63.0435470  39.9774820  20.6973150  64.3846920  42.0549510  28.0620490
  64.8832170  42.5295330  28.7272340  64.5269870  41.1313030  28.2690520
  66.7906420  37.3603470  21.5023750  66.6674200  37.3789600  20.5533260
  67.7390980  37.4082410  21.6222150  63.8783210  52.5958770  20.7751730
  64.1324710  52.5580160  19.8531100  62.9295690  52.4692100  20.7679980
  60.9626010  38.9437890  17.4378670  61.8116540  39.3808040  17.3718860
  60.5957280  39.2558150  18.2650730  69.8835790  43.5150650  22.3510240
  68.9425930  43.5300880  22.5257930  70.1979860  42.7286610  22.7970540
  59.8617430  45.1970250  15.9114200  60.6280700  45.0851610  16.4739630
  59.9392120  44.5008220  15.2590970  58.5564190  42.6295320  16.5947090
  58.6367780  41.6822830  16.7064490  59.4483940  42.9602200  16.7007750
  59.3578900  52.7790710  23.6981630  60.0941380  52.2306170  23.9690200
  59.7419820  53.6446720  23.5587620  56.2424380  48.8464280  19.5723140
  55.3164160  49.0885420  19.5628550  56.7080810  49.6738540  19.4507890
  58.3637180  51.9636780  32.8867210  59.1649910  52.2848830  33.3002610
  57.8489000  51.6032360  33.6087120  62.4681210  51.9521020  15.5207200
  63.2609820  52.2409850  15.0688990  61.9485560  51.5213190  14.8419680
  67.2001810  48.0716650  32.8342620  66.5939970  48.0948250  32.0938370
  66.8955920  47.3399690  33.3709870  68.6302180  51.7996940  31.4452030
  69.5823930  51.7154960  31.3952270  68.4830400  52.4638650  32.1185820
  56.0834990  44.4510240  31.8303260  56.5874010  43.8717520  32.4019490
  55.3442410  44.7350470  32.3679630  62.9858610  47.1724430  15.3849550
  62.8809250  46.5576780  16.1110930  62.8182830  46.6490320  14.6012560
  63.1372930  45.8581230  31.3638780  62.3718600  46.4266230  31.2793450
  63.3188890  45.5657440  30.4707010  66.2261340  46.2344460  15.9891540
  65.6771440  46.6813760  16.6334280  66.8480600  45.7293710  16.5129210
  70.2796280  47.5886560  31.9213800  71.0205750  47.9262320  31.4181260
  69.5168960  47.7578620  31.3683570  58.1158070  42.5939830  32.7253330
  58.1563410  42.2953700  33.6338560  58.9703570  42.9947440  32.5660850
  61.8936460  45.1935380  17.8856840  62.3152880  45.0275250  18.7288230
  62.0187300  44.3835610  17.3911980  60.0563880  41.1731930  30.6927820
  59.5260340  40.6822880  30.0651160  60.7251950  41.6016130  30.1585750
  64.4064100  44.2172990  15.1333940  64.9269760  43.5022010  14.7675090
  65.0532500  44.8558860  15.4334450  68.9541940  45.6401390  30.4569010
  69.3682960  45.7946470  31.3059430  68.0192940  45.7656610  30.6194790
  69.4264110  42.9797550  32.4608160  70.0084880  42.2249870  32.3728640
  69.6025880  43.5104990  31.6839640  60.5436180  38.1394300  30.7725110
  60.4493050  37.5215050  30.0475980  59.9633570  38.8660590  30.5455020
  63.3097620  36.6967540  27.8052500  62.8614920  36.7191800  26.9598050
  62.6762820  36.2986560  28.4022800  63.7157170  45.5921870  28.4264940
  64.1345280  46.4354600  28.2541180  62.7965800  45.7293910  28.1971720
  66.0521070  43.3238050  29.8102780  66.1717280  42.7279190  30.5497620
  66.9115070  43.3607740  29.3904080  68.3908970  43.8775240  28.3865290
  67.8644190  44.4017860  27.7830430  68.7340310  44.5102630  29.0175020
  60.7895360  41.2668610  14.8315000  60.5884420  40.4035970  15.1928340
  60.6187410  41.1801970  13.8936600  61.5664590  51.8974880  29.5422670
  61.0285680  52.6220940  29.2231370  61.8198550  51.4205220  28.7520010
  62.8189840  39.8659400  31.0678600  63.4089530  39.5575250  31.7556420
  62.0010080  39.3939150  31.2238500  67.6383270  39.4825210  31.3011620
  66.9498790  38.8206750  31.2361610  68.3589290  39.0363480  31.7460080
  68.2683670  36.0776840  17.3601880  68.5485960  35.2344740  17.7161300
  67.4949400  36.3099950  17.8740630  59.5878160  38.3669230  14.8192880
  59.8904060  38.3736660  13.9112030  60.3272750  38.0167090  15.3160540
  64.4226800  53.1326090  29.8009320  64.3485500  54.0361230  30.1081690
  63.5205640  52.8137990  29.7731390  62.8063090  37.3103850  15.8049080
  62.4585090  36.6327840  15.2251530  63.0075860  36.8493360  16.6192470
  64.9712130  52.2984600  17.4235680  65.8662920  52.6369570  17.4454440
  65.0029760  51.5764010  16.7959960  58.6108290  47.6711650  15.6522680
  59.0483160  48.2141320  16.3080260  59.0956020  46.8458600  15.6619020
  55.8254090  50.4600680  23.1042940  56.1557100  49.5921740  22.8721580
  56.2545090  50.6659200  23.9347900  60.4216010  48.7909690  20.7644910
  60.1211550  48.6674660  21.6648820  60.3153500  47.9318280  20.3560640
  56.3144300  51.3271270  25.8424570  55.8775290  51.5072070  26.6748720
  56.8821980  52.0845890  25.7006290  56.1468730  43.8391500  22.2013450
  55.4917570  43.5703140  21.5573150  56.9846680  43.7295980  21.7515430
  70.6358120  47.5540250  28.2278040  69.8217960  47.9837410  28.4903830
  71.0432320  48.1658660  27.6147090  69.0959170  38.6332790  16.4231940
  69.5144050  38.4463770  15.5828600  68.7895230  37.7811840  16.7334870
  57.1844660  44.2244070  26.7416790  57.5517700  44.1371470  27.6212810
  56.6155480  43.4610620  26.6423650  56.7360660  41.1353160  30.6475210
  55.8416710  41.1019920  30.9868920  57.2758210  41.3339950  31.4126460
  55.3606810  41.0490430  18.1438780  54.4570890  41.3120630  17.9690440
  55.8447430  41.3201600  17.3638740  57.9034020  40.1055970  16.0533160
  58.6125720  39.6839190  15.5680440  57.1873960  40.1731200  15.4216510
  57.5508180  36.1595300  15.0935810  58.2736310  36.7004240  15.4117030
  57.8232700  35.8858720  14.2177350  58.5996740  48.7376760  31.9036940
  58.5566370  48.3669670  32.7851400  58.7307750  49.6754330  32.0438760
  62.3002770  50.2936350  27.5046660  62.0594130  50.5610910  26.6177180
  63.2405410  50.4642080  27.5597520  64.5057190  36.7569040  31.2603170
  64.4446080  37.3490870  32.0098580  65.4457570  36.6495000  31.1153430
  67.1431750  36.4139100  30.8995460  67.7572160  36.7318390  30.2376540
  67.6881310  35.9287690  31.5191320  57.6653010  35.0933360  31.0134520
  58.2136000  34.9121410  30.2500630  57.7308320  34.3027470  31.5490830
  58.4384770  51.6839010  29.0234720  57.8445090  51.5523710  29.7624760
  58.4308610  50.8477150  28.5576820  67.8839790  34.9771240  27.2264750
  67.0099630  35.3106350  27.0237680  67.7750540  34.5044420  28.0516620
  68.7911770  37.1842110  28.6106470  68.4625130  36.3693870  28.2308200
  69.7394070  37.1411920  28.4872160  58.0697000  49.0497390  27.9742760
  57.3431060  48.4302680  27.9068710  58.1306150  49.4438000  27.1040840
  61.6742100  51.2642390  24.7592170  62.1907120  50.6529750  24.2340430
  62.3239480  51.7671170  25.2503180  64.4137600  52.1550880  25.5861150
  64.7015410  51.9005180  24.7094160  64.9260820  51.6028240  26.1766720
  65.6314610  35.8941080  26.1657660  64.8486400  36.3686580  26.4454420
  65.3377540  34.9895910  26.0570840  70.1835680  36.5964180  24.2106750
  70.6243770  36.5409280  23.3628350  69.9143270  37.5122190  24.2816930
  56.3527000  52.3671780  21.1839520  56.1849040  51.7342460  21.8821410
  55.4861510  52.5731180  20.8333710  63.5168830  38.3127830  21.6773690
  62.7043340  37.9384720  21.3369570  64.0210470  37.5572910  21.9794880
  68.0193810  34.9770280  22.9156760  68.6223180  35.5490490  23.3905280
  67.2786800  35.5409720  22.6930660  57.9589700  51.0605010  18.6289660
  57.4337320  51.4413040  17.9251620  57.8834280  51.6855780  19.3499370
  59.3480170  36.7252610  17.2273350  59.8772930  35.9382410  17.0981300
  59.9808490  37.4043800  17.4608880  61.5418010  36.4627750  20.2818740
  60.9120750  35.7615060  20.4488870  61.0023150  37.2231880  20.0651900
  64.4809960  53.0766980  32.9529350  65.4077270  52.8411250  32.9965310
  64.4660390  53.9038980  32.4715380  61.6673570  35.7411730  32.7171230
  61.3857840  36.2445330  31.9532050  62.0493270  34.9433480  32.3513360
  60.5582670  53.0087390  17.5038910  61.2901490  52.7246670  16.9562800
  60.8176340  52.7700670  18.3938290  59.7197460  49.1252120  17.5085240
  59.0906340  49.5937220  18.0571070  59.8345290  48.2801340  17.9431430
  68.2689030  35.1565310  33.2951700  68.1554480  35.4759920  34.1903220
  69.0858770  35.5577820  32.9988980  67.1747180  43.1757780   3.6586440
  67.0941230  42.2612390   3.3878150  66.7611600  43.6724850   2.9526150
  65.3065220  44.9536800   5.5395710  64.5307320  44.4737240   5.8294280
  65.9578150  44.2742450   5.3651870  59.3231050  45.2656610   6.4171470
  58.4915930  45.0105320   6.8167980  59.9312030  45.3367380   7.1529390
  69.3272650  49.3596990   4.3194840  68.8654180  48.5884230   4.6482010
  70.1398200  49.3863060   4.8247290  59.3032310  49.2996700   6.6129490
  59.6060350  48.4094440   6.4339710  60.0475900  49.8566920   6.3851740
  55.6956010  42.8264150   6.0853560  56.2672120  42.0586350   6.0857200
  55.6957550  43.1252910   5.1760170  65.5535960  51.6455000   3.9398830
  64.9347400  52.1012500   3.3693270  66.4087740  51.8006460   3.5388530
  64.7474210  47.6293990   5.5465870  64.6782490  46.6883930   5.3855000
  65.5094070  47.7195400   6.1188440  56.9380880  38.2348510   7.8722490
  56.7583720  37.3374260   8.1525250  56.5360960  38.7820380   8.5469440
  65.7779380  40.4364370   5.7734800  66.1544200  39.5636250   5.6608470
  65.6798890  40.7723070   4.8825240  69.5603500  37.9314810   2.7063140
  70.3813120  37.4411380   2.7488620  69.5937580  38.5212470   3.4594980
  57.5567550  40.7309010   6.4804830  58.2377660  40.9947380   7.0992230
  57.2415600  39.8909880   6.8142840  61.7492120  41.7776370   5.5677420
  62.2570340  42.2757340   6.2082440  62.2805360  41.0011570   5.3916780
  60.0328220  36.4174930   9.8340840  60.0346660  36.9347320   9.0286740
  59.2032530  35.9405110   9.8110770  61.2831070  46.0570110   8.0114340
  60.9500450  46.6839030   8.6535410  61.4597750  46.5831990   7.2316010
  69.7964980  39.8715190   5.4790680  69.0920550  40.1600080   6.0593790
  70.1577140  40.6815300   5.1190240  59.7143550  38.1284890   7.8411290
  60.0560360  38.9726940   7.5465160  58.7759360  38.2768630   7.9576630
  60.4950170  48.0250910   9.8263520  61.1124170  48.7001990   9.5447970
  59.6343290  48.4338890   9.7351020  63.3971440  35.6167160   4.1655880
  63.7046420  35.0614050   3.4491380  62.4672140  35.7511620   3.9828870
  68.9486500  51.3334450   6.4563340  68.9613660  50.9296740   5.5885600
  68.3961720  52.1081740   6.3524770  68.3471940  46.2364290   7.7845950
  68.7640730  46.0224400   6.9499410  69.0711760  46.4937080   8.3554570
  69.2576050  41.4220830   8.8217060  68.8447230  42.2474540   9.0757050
  68.5252000  40.8365870   8.6293420  61.3908840  44.2080730   3.6835730
  60.9865840  43.4957980   3.1881630  61.4771960  43.8633970   4.5723770
  61.8590540  47.8948290   5.8474940  61.5618830  47.2893760   5.1682720
  62.8090360  47.9325600   5.7364300  60.1037460  40.9823940   7.4634770
  60.6552050  41.0919280   6.6888020  60.6180970  41.3561540   8.1790000
  69.9476150  51.4680160   9.5098040  69.4706710  52.2752350   9.3170650
  69.2637940  50.8158490   9.6624250  60.9508970  47.6329980  12.4982740
  60.0537500  47.8569950  12.7456140  60.9761840  47.7564920  11.5494140
  59.7780190  44.5043300  11.0740110  59.6387960  45.3766100  11.4427510
  58.8961550  44.1616110  10.9288050  66.1009570  49.4219170   2.3805240
  66.5405480  50.1643500   1.9660630  66.0396460  49.6645740   3.3044200
  61.5760540  50.4465000  13.2825260  61.5475970  50.8507950  12.4153690
  61.4125510  49.5175360  13.1196860  55.7298840  46.2740850   6.9911020
  55.8079260  46.4089620   6.0466740  56.3440520  45.5656740   7.1839140
  56.9746470  47.9741040   3.4017200  56.5674550  48.1155630   2.5470800
  57.8659480  47.6901200   3.1988410  66.7925350  52.1232950  10.3084250
  67.3070020  52.0340960  11.1106680  65.9494430  52.4692650  10.6012160
  68.0355810  51.5438560   2.3714740  68.4912760  50.7627940   2.6853360
  68.3748330  52.2545380   2.9155920  55.7858360  47.3155020   9.5305480
  55.9489400  46.8460380   8.7124850  56.2510810  46.8078580  10.1954320
  60.5577130  36.4460780   4.5666050  60.1145280  37.2270320   4.2350570
  61.1162120  36.7690670   5.2736990  64.8446940  39.3129300  10.1701370
  64.3826310  39.5212320  10.9821310  64.4425050  38.4988650   9.8672040
  69.8451450  40.5338250  11.2998030  68.9945040  40.2344000  11.6207100
  69.6853240  40.7780260  10.3881850  66.9401160  42.0340000  13.3996820
  67.2654570  41.2003750  13.0599050  67.7281490  42.5568520  13.5475150
  62.5953030  36.9908110   6.4255650  62.8925360  37.8970940   6.3447670
  63.1438590  36.5026890   5.8115220  60.3491350  41.5694350   2.2947300
  60.1232270  41.3531520   3.1993920  59.5683880  42.0022810   1.9493270
  62.7890560  42.4679930  12.9607570  62.6934160  41.5274660  12.8107970
  63.6322540  42.6895000  12.5655640  66.1853980  40.2121260   2.9241230
  66.5783550  40.5293460   2.1109920  66.5470830  39.3333140   3.0385750
  57.9201100  38.8793600  11.1141350  57.5264490  39.7268810  11.3214130
  57.2319500  38.2419970  11.3049990  64.4946150  38.9628570  14.1838090
  63.8044470  38.7700770  14.8184180  65.2378450  39.2463210  14.7162390
  55.2218150  36.8022060   5.1471430  54.9331200  37.3724920   5.8596410
  55.9663910  36.3226510   5.5102660  66.7709120  42.8027010   7.0192010
  66.0390240  43.3113820   7.3682110  66.3733460  41.9856990   6.7180790
  63.2086510  39.4781210   5.4244500  63.2122570  39.0371160   4.5749040
  64.1037630  39.7998540   5.5316320  59.0588890  39.3607700   4.3838710
  58.7188940  39.8382930   5.1405760  58.2966210  38.9072820   4.0239810
  67.2335030  38.2560690   6.4314950  67.2507770  38.7069340   7.2756800
  66.9850610  37.3566330   6.6448390  70.6605780  35.6692870  12.2701330
  70.9851550  34.9382530  12.7959310  70.6962290  35.3506510  11.3682320
  57.3597340  46.6906450  11.6901290  56.9752130  46.0500120  12.2884250
  57.6709530  47.3942570  12.2596020  63.5094480  43.5382990   7.1709910
  63.8764610  43.0641560   7.9171250  63.3199540  44.4124560   7.5118250
  56.3734970  38.2826680   3.3003380  56.0881890  37.9182350   4.1382000
  56.3113830  37.5507140   2.6866520  61.2993850  42.5791630   9.4894120
  60.9950920  43.4583610   9.7144480  62.2540310  42.6391420   9.5251560
  65.9682420  45.8527040  11.7656360  65.9019730  44.9322710  11.5113950
  65.3387560  45.9502480  12.4801000  59.8713040  46.4533000   3.7239780
  60.3891710  45.6501260   3.6696670  59.4197060  46.3912140   4.5656610
  57.3557580  43.4194370  10.6365480  56.9972520  44.0848220  11.2238820
  57.0612140  42.5877920  11.0078100  60.5570700  43.8778610  13.5205030
  60.2570840  44.0235790  12.6232850  61.3281940  43.3183900  13.4278420
  65.8999150  48.6747610  11.5160160  65.9143690  47.7428570  11.2979070
  65.1924250  48.7607370  12.1549930  67.6409950  47.0415120   4.3612590
  67.9933770  46.4443250   3.7013960  66.7572280  46.7159350   4.5320840
  63.7273230  47.8012810   1.7683000  64.4144360  48.3482020   2.1490590
  62.9405650  48.3453540   1.8032610  65.3333050  50.3165180   8.6100660
  65.9775270  50.5224560   9.2874080  65.6962490  49.5553580   8.1571510
  66.6065130  48.3197530   7.3278110  67.2487360  47.6190690   7.4410280
  67.1314480  49.0995970   7.1475000  68.3802750  49.1192430  10.5314170
  68.7158990  49.7059120  11.2092090  67.4603090  48.9885140  10.7611960
  55.9306150  36.9087610  11.3137580  55.2164670  37.1084530  11.9190190
  56.3501190  36.1327180  11.6852380  56.2178740  50.8967870  12.3004110
  56.3269860  49.9562610  12.1599500  55.5659300  51.1622620  11.6517840
  64.2091330  49.1683760  13.7002230  63.8888200  48.4493000  14.2447920
  63.5349690  49.8438830  13.7738290  67.4244930  39.4009920   9.0639030
  67.7925750  38.5805130   9.3918600  66.5643130  39.4611810   9.4794680
  64.3846920  42.0549510   9.2877000  64.8832170  42.5295330   9.9528850
  64.5269870  41.1313030   9.4947030  66.7906420  37.3603470   2.7280260
  66.6674200  37.3789600   1.7789770  67.7390980  37.4082410   2.8478660
  69.8835790  43.5150650   3.5766750  68.9425930  43.5300880   3.7514440
  70.1979860  42.7286610   4.0227050  59.3578900  52.7790710   4.9238140
  60.0941380  52.2306170   5.1946710  59.7419820  53.6446720   4.7844130
  58.3637180  51.9636780  14.1123720  59.1649910  52.2848830  14.5259120
  57.8489000  51.6032360  14.8343630  67.2001810  48.0716650  14.0599130
  66.5939970  48.0948250  13.3194880  66.8955920  47.3399690  14.5966380
  68.6302180  51.7996940  12.6708540  69.5823930  51.7154960  12.6208780
  68.4830400  52.4638650  13.3442330  56.0834990  44.4510240  13.0559770
  56.5874010  43.8717520  13.6276000  55.3442410  44.7350470  13.5936140
  63.1372930  45.8581230  12.5895290  62.3718600  46.4266230  12.5049960
  63.3188890  45.5657440  11.6963520  70.2796280  47.5886560  13.1470310
  71.0205750  47.9262320  12.6437770  69.5168960  47.7578620  12.5940080
  58.1158070  42.5939830  13.9509840  58.1563410  42.2953700  14.8595070
  58.9703570  42.9947440  13.7917360  60.0563880  41.1731930  11.9184330
  59.5260340  40.6822880  11.2907670  60.7251950  41.6016130  11.3842260
  68.9541940  45.6401390  11.6825520  69.3682960  45.7946470  12.5315940
  68.0192940  45.7656610  11.8451300  69.4264110  42.9797550  13.6864670
  70.0084880  42.2249870  13.5985150  69.6025880  43.5104990  12.9096150
  60.5436180  38.1394300  11.9981620  60.4493050  37.5215050  11.2732490
  59.9633570  38.8660590  11.7711530  63.3097620  36.6967540   9.0309010
  62.8614920  36.7191800   8.1854560  62.6762820  36.2986560   9.6279310
  63.7157170  45.5921870   9.6521450  64.1345280  46.4354600   9.4797690
  62.7965800  45.7293910   9.4228230  66.0521070  43.3238050  11.0359290
  66.1717280  42.7279190  11.7754130  66.9115070  43.3607740  10.6160590
  68.3908970  43.8775240   9.6121800  67.8644190  44.4017860   9.0086940
  68.7340310  44.5102630  10.2431530  61.5664590  51.8974880  10.7679180
  61.0285680  52.6220940  10.4487880  61.8198550  51.4205220   9.9776520
  62.8189840  39.8659400  12.2935110  63.4089530  39.5575250  12.9812930
  62.0010080  39.3939150  12.4495010  67.6383270  39.4825210  12.5268130
  66.9498790  38.8206750  12.4618120  68.3589290  39.0363480  12.9716590
  64.4226800  53.1326090  11.0265830  64.3485500  54.0361230  11.3338200
  63.5205640  52.8137990  10.9987900  55.8254090  50.4600680   4.3299450
  56.1557100  49.5921740   4.0978090  56.2545090  50.6659200   5.1604410
  56.3144300  51.3271270   7.0681080  55.8775290  51.5072070   7.9005230
  56.8821980  52.0845890   6.9262800  56.1468730  43.8391500   3.4269960
  55.4917570  43.5703140   2.7829660  56.9846680  43.7295980   2.9771940
  70.6358120  47.5540250   9.4534550  69.8217960  47.9837410   9.7160340
  71.0432320  48.1658660   8.8403600  57.1844660  44.2244070   7.9673300
  57.5517700  44.1371470   8.8469320  56.6155480  43.4610620   7.8680160
  56.7360660  41.1353160  11.8731720  55.8416710  41.1019920  12.2125430
  57.2758210  41.3339950  12.6382970  57.2400370  35.4101490   6.2214940
  57.8876560  34.8598870   5.7810100  57.6602210  35.6644640   7.0430750
  56.9932370  35.5657160   8.9640260  56.6447190  36.0220980   9.7298440
  56.6620070  34.6714290   9.0462690  58.5996740  48.7376760  13.1293450
  58.5566370  48.3669670  14.0107910  58.7307750  49.6754330  13.2695270
  62.3002770  50.2936350   8.7303170  62.0594130  50.5610910   7.8433690
  63.2405410  50.4642080   8.7854030  64.5057190  36.7569040  12.4859680
  64.4446080  37.3490870  13.2355090  65.4457570  36.6495000  12.3409940
  67.1431750  36.4139100  12.1251970  67.7572160  36.7318390  11.4633050
  67.6881310  35.9287690  12.7447830  57.6653010  35.0933360  12.2391030
  58.2136000  34.9121410  11.4757140  57.7308320  34.3027470  12.7747340
  58.4384770  51.6839010  10.2491230  57.8445090  51.5523710  10.9881270
  58.4308610  50.8477150   9.7833330  67.8839790  34.9771240   8.4521260
  67.0099630  35.3106350   8.2494190  67.7750540  34.5044420   9.2773130
  68.7911770  37.1842110   9.8362980  68.4625130  36.3693870   9.4564710
  69.7394070  37.1411920   9.7128670  58.0697000  49.0497390   9.1999270
  57.3431060  48.4302680   9.1325220  58.1306150  49.4438000   8.3297350
  61.6742100  51.2642390   5.9848680  62.1907120  50.6529750   5.4596940
  62.3239480  51.7671170   6.4759690  64.4137600  52.1550880   6.8117660
  64.7015410  51.9005180   5.9350670  64.9260820  51.6028240   7.4023230
  65.6314610  35.8941080   7.3914170  64.8486400  36.3686580   7.6710930
  65.3377540  34.9895910   7.2827350  70.1835680  36.5964180   5.4363260
  70.6243770  36.5409280   4.5884860  69.9143270  37.5122190   5.5073440
  56.3527000  52.3671780   2.4096030  56.1849040  51.7342460   3.1077920
  55.4861510  52.5731180   2.0590220  63.5168830  38.3127830   2.9030200
  62.7043340  37.9384720   2.5626080  64.0210470  37.5572910   3.2051390
  68.0193810  34.9770280   4.1413270  68.6223180  35.5490490   4.6161790
  67.2786800  35.5409720   3.9187170  64.4809960  53.0766980  14.1785860
  65.4077270  52.8411250  14.2221820  64.4660390  53.9038980  13.6971890
  61.6673570  35.7411730  13.9427740  61.3857840  36.2445330  13.1788560
  62.0493270  34.9433480  13.5769870  68.2689030  35.1565310  14.5208210
  68.1554480  35.4759920  15.4159730  69.0858770  35.5577820  14.2245490
  67.1747180  24.4014290  78.7560400  67.0941230  23.4868900  78.4852110
  66.7611600  24.8981360  78.0500110  65.3065220  26.1793310  80.6369670
  64.5307320  25.6993750  80.9268240  65.9578150  25.4998960  80.4625830
  59.3231050  26.4913120  81.5145430  58.4915930  26.2361830  81.9141940
  59.9312030  26.5623890  82.2503350  69.3272650  30.5853500  79.4168800
  68.8654180  29.8140740  79.7455970  70.1398200  30.6119570  79.9221250
  59.3032310  30.5253210  81.7103450  59.6060350  29.6350950  81.5313670
  60.0475900  31.0823430  81.4825700  57.7323000  21.4515010  75.2987820
  56.8439700  21.7930980  75.1967700  58.0164190  21.2515330  74.4068650
  55.6956010  24.0520660  81.1827520  56.2672120  23.2842860  81.1831160
  55.6957550  24.3509420  80.2734130  65.5535960  32.8711510  79.0372790
  64.9347400  33.3269010  78.4667230  66.4087740  33.0262970  78.6362490
  64.7474210  28.8550500  80.6439830  64.6782490  27.9140440  80.4828960
  65.5094070  28.9451910  81.2162400  56.9380880  19.4605020  82.9696450
  56.7583720  18.5630770  83.2499210  56.5360960  20.0076890  83.6443400
  65.7779380  21.6620880  80.8708760  66.1544200  20.7892760  80.7582430
  65.6798890  21.9979580  79.9799200  59.9084390  20.0346510  76.3326200
  60.0151140  20.9350240  76.6394960  58.9976750  19.9864480  76.0420850
  69.5603500  19.1571320  77.8037100  70.3813120  18.6667890  77.8462580
  69.5937580  19.7468980  78.5568940  57.5567550  21.9565520  81.5778790
  58.2377660  22.2203890  82.1966190  57.2415600  21.1166390  81.9116800
  61.7492120  23.0032880  80.6651380  62.2570340  23.5013850  81.3056400
  62.2805360  22.2268080  80.4890740  66.4199310  27.7550750  76.4304700
  65.8016580  28.2200200  75.8667420  66.9322560  28.4478230  76.8474210
  61.2831070  27.2826620  83.1088300  60.9500450  27.9095540  83.7509370
  61.4597750  27.8088500  82.3289970  69.7964980  21.0971700  80.5764640
  69.0920550  21.3856590  81.1567750  70.1577140  21.9071810  80.2164200
  59.7143550  19.3541400  82.9385250  60.0560360  20.1983450  82.6439120
  58.7759360  19.5025140  83.0550590  55.7882510  28.4407280  73.8044330
  55.4110490  28.9294380  73.0729230  56.0455580  29.1132560  74.4350860
  63.3971440  16.8423670  79.2629840  63.7046420  16.2870560  78.5465340
  62.4672140  16.9768130  79.0802830  68.9486500  32.5590960  81.5537300
  68.9613660  32.1553250  80.6859560  68.3961720  33.3338250  81.4498730
  70.2431920  29.2807180  76.6427470  70.1328250  28.3381510  76.7676890
  70.2400170  29.6422820  77.5290230  68.3471940  27.4620800  82.8819910
  68.7640730  27.2480910  82.0473370  69.0711760  27.7193590  83.4528530
  65.7852200  24.9072500  75.9989960  64.8581480  24.8409880  76.2278430
  65.9377020  25.8452630  75.8845200  65.7721280  21.1789500  72.9957120
  64.8324950  21.3403460  73.0809580  66.0904540  21.8975180  72.4493110
  69.8149490  26.4692800  76.5025210  69.1961910  26.1312350  75.8551510
  69.7973940  25.8252560  77.2104400  61.3908840  25.4337240  78.7809690
  60.9865840  24.7214490  78.2855590  61.4771960  25.0890480  79.6697730
  61.8590540  29.1204800  80.9448900  61.5618830  28.5150270  80.2656680
  62.8090360  29.1582110  80.8338260  60.1037460  22.2080450  82.5608730
  60.6552050  22.3175790  81.7861980  60.6180970  22.5818050  83.2763960
  67.9914190  25.7079610  73.5097960  68.4307470  24.8702040  73.3635780
  68.7042610  26.3409010  73.5962100  66.1009570  30.6475680  77.4779200
  66.5405480  31.3900010  77.0634590  66.0396460  30.8902250  78.4018160
  58.0913470  24.3282220  76.2816340  57.9711070  25.0544310  75.6697610
  57.7814360  23.5585130  75.8044250  55.7298840  27.4997360  82.0884980
  55.8079260  27.6346130  81.1440700  56.3440520  26.7913250  82.2813100
  56.9746470  29.1997550  78.4991160  56.5674550  29.3412140  77.6444760
  57.8659480  28.9157710  78.2962370  68.7679750  33.6344800  74.8342210
  68.6080890  33.3447740  75.7324040  68.6026460  32.8584930  74.2987440
  61.2468130  33.4143330  76.6113830  61.0710610  32.4978870  76.3981630
  60.3923870  33.7730620  76.8511630  68.4705880  31.1432360  73.3940210
  67.7771040  31.1409650  72.7342490  69.2128740  30.7191680  72.9634380
  68.0355810  32.7695070  77.4688700  68.4912760  31.9884450  77.7827320
  68.3748330  33.4801890  78.0129880  60.5577130  17.6717290  79.6640010
  60.1145280  18.4526830  79.3324530  61.1162120  17.9947180  80.3710950
  63.6735950  17.2927990  74.5445840  63.0490130  17.2887860  75.2699150
  63.5866070  16.4258950  74.1481810  62.5953030  18.2164620  81.5229610
  62.8925360  19.1227450  81.4421630  63.1438590  17.7283400  80.9089180
  60.3491350  22.7950860  77.3921260  60.1232270  22.5788030  78.2967880
  59.5683880  23.2279320  77.0467230  67.5789110  22.8014230  75.9911910
  66.9798000  23.5250030  75.8075530  68.1268720  22.7391010  75.2088360
  66.1853980  21.4377770  78.0215190  66.5783550  21.7549970  77.2083880
  66.5470830  20.5589650  78.1359710  55.2218150  18.0278570  80.2445390
  54.9331200  18.5981430  80.9570370  55.9663910  17.5483020  80.6076620
  55.4088380  21.9698690  71.4548110  55.3263050  22.9129450  71.5963100
  55.0571440  21.8273600  70.5760460  66.7709120  24.0283520  82.1165970
  66.0390240  24.5370330  82.4656070  66.3733460  23.2113500  81.8154750
  63.2086510  20.7037720  80.5218460  63.2122570  20.2627670  79.6723000
  64.1037630  21.0255050  80.6290280  59.0588890  20.5864210  79.4812670
  58.7188940  21.0639440  80.2379720  58.2966210  20.1329330  79.1213770
  63.2706660  21.7049800  73.5125220  63.3919480  21.6636280  74.4611040
  62.8855170  22.5673950  73.3571950  67.2335030  19.4817200  81.5288910
  67.2507770  19.9325850  82.3730760  66.9850610  18.5822840  81.7422350
  62.2828160  24.0150940  72.9108520  61.7145060  23.5669190  72.2844430
  62.9917160  24.3743720  72.3773670  63.5094480  24.7639500  82.2683870
  63.8764610  24.2898070  83.0145210  63.3199540  25.6381070  82.6092210
  56.3734970  19.5083190  78.3977340  56.0881890  19.1438860  79.2355960
  56.3113830  18.7763650  77.7840480  59.8275640  28.0109130  75.1834930
  59.0537900  27.4706750  75.0233650  60.5570270  27.4915740  74.8452690
  66.0473560  18.4012450  75.1190710  65.2338170  17.9025620  75.0436020
  65.8535510  19.2410700  74.7027060  68.7621950  22.7732100  73.4152870
  69.6501570  23.0849330  73.2404210  68.7327040  21.9004350  73.0233450
  59.8713040  27.6789510  78.8213740  60.3891710  26.8757770  78.7670630
  59.4197060  27.6168650  79.6630570  64.7582540  28.9455790  74.0941040
  65.0998240  29.6898020  73.5984360  63.9295250  29.2586910  74.4565870
  67.6409950  28.2671630  79.4586550  67.9933770  27.6699760  78.7987920
  66.7572280  27.9415860  79.6294800  63.7273230  29.0269320  76.8656960
  64.4144360  29.5738530  77.2464550  62.9405650  29.5710050  76.9006570
  55.8665630  24.6442140  72.3574040  56.7360480  24.9266940  72.6409960
  55.3755950  25.4578010  72.2422850  63.0300440  26.0315350  76.4782320
  63.4863220  26.8420600  76.7042510  62.6788650  25.7138490  77.3100810
  58.9312220  16.3753000  76.9504840  58.8026850  16.3670900  77.8989760
  58.1074240  16.7136090  76.5995850  66.6065130  29.5454040  82.4252070
  67.2487360  28.8447200  82.5384240  67.1314480  30.3252480  82.2448960
  70.4520850  29.8302660  72.1491210  70.2258430  29.1133100  72.7415850
  70.0617050  29.5815100  71.3112960  56.2336880  33.8569520  72.9235670
  56.5934520  34.4558860  72.2692940  56.0929220  34.4029410  73.6970700
  70.0337100  27.7474600  73.8105370  69.7458800  28.2087290  74.5983250
  70.8289270  27.2872370  74.0789590  62.2505500  31.2400720  73.7409340
  62.2415600  31.9730410  73.1253850  61.3303860  30.9932300  73.8336300
  57.8512140  26.4615610  74.4856100  57.2440090  27.2014510  74.4951400
  58.3261490  26.5514970  73.6594300  70.7906960  19.5823370  74.9700550
  70.1620120  19.6869040  74.2558780  70.2958880  19.8020150  75.7594430
  65.2365100  31.3028960  72.4034530  65.3377080  31.0992950  71.4736510
  64.3366840  31.0487240  72.6082310  62.7590990  21.8609320  76.3858430
  62.0507140  22.3295660  76.8272040  63.0435470  21.2031330  77.0203620
  66.7906420  18.5859980  77.8254220  66.6674200  18.6046110  76.8763730
  67.7390980  18.6338920  77.9452620  63.8783210  33.8215280  77.0982200
  64.1324710  33.7836670  76.1761570  62.9295690  33.6948610  77.0910450
  60.9626010  20.1694400  73.7609140  61.8116540  20.6064550  73.6949330
  60.5957280  20.4814660  74.5881200  69.8835790  24.7407160  78.6740710
  68.9425930  24.7557390  78.8488400  70.1979860  23.9543120  79.1201010
  59.8617430  26.4226760  72.2344670  60.6280700  26.3108120  72.7970100
  59.9392120  25.7264730  71.5821440  58.5564190  23.8551830  72.9177560
  58.6367780  22.9079340  73.0294960  59.4483940  24.1858710  73.0238220
  59.3578900  34.0047220  80.0212100  60.0941380  33.4562680  80.2920670
  59.7419820  34.8703230  79.8818090  56.2424380  30.0720790  75.8953610
  55.3164160  30.3141930  75.8859020  56.7080810  30.8995050  75.7738360
  62.4681210  33.1777530  71.8437670  63.2609820  33.4666360  71.3919460
  61.9485560  32.7469700  71.1650150  62.9858610  28.3980940  71.7080020
  62.8809250  27.7833290  72.4341400  62.8182830  27.8746830  70.9243030
  66.2261340  27.4600970  72.3122010  65.6771440  27.9070270  72.9564750
  66.8480600  26.9550220  72.8359680  61.8936460  26.4191890  74.2087310
  62.3152880  26.2531760  75.0518700  62.0187300  25.6092120  73.7142450
  64.4064100  25.4429500  71.4564410  64.9269760  24.7278520  71.0905560
  65.0532500  26.0815370  71.7564920  60.7895360  22.4925120  71.1545470
  60.5884420  21.6292480  71.5158810  60.6187410  22.4058480  70.2167070
  68.2683670  17.3033350  73.6832350  68.5485960  16.4601250  74.0391770
  67.4949400  17.5356460  74.1971100  59.5878160  19.5925740  71.1423350
  59.8904060  19.5993170  70.2342500  60.3272750  19.2423600  71.6391010
  62.8063090  18.5360360  72.1279550  62.4585090  17.8584350  71.5482000
  63.0075860  18.0749870  72.9422940  64.9712130  33.5241110  73.7466150
  65.8662920  33.8626080  73.7684910  65.0029760  32.8020520  73.1190430
  58.6108290  28.8968160  71.9753150  59.0483160  29.4397830  72.6310730
  59.0956020  28.0715110  71.9849490  55.8254090  31.6857190  79.4273410
  56.1557100  30.8178250  79.1952050  56.2545090  31.8915710  80.2578370
  60.4216010  30.0166200  77.0875380  60.1211550  29.8931170  77.9879290
  60.3153500  29.1574790  76.6791110  56.3144300  32.5527780  82.1655040
  55.8775290  32.7328580  82.9979190  56.8821980  33.3102400  82.0236760
  56.1468730  25.0648010  78.5243920  55.4917570  24.7959650  77.8803620
  56.9846680  24.9552490  78.0745900  69.0959170  19.8589300  72.7462410
  69.5144050  19.6720280  71.9059070  68.7895230  19.0068350  73.0565340
  55.3606810  22.2746940  74.4669250  54.4570890  22.5377140  74.2920910
  55.8447430  22.5458110  73.6869210  57.9034020  21.3312480  72.3763630
  58.6125720  20.9095700  71.8910910  57.1873960  21.3987710  71.7446980
  57.5508180  17.3851810  71.4166280  58.2736310  17.9260750  71.7347500
  57.8232700  17.1115230  70.5407820  57.2400370  16.6358000  81.3188900
  57.8876560  16.0855380  80.8784060  57.6602210  16.8901150  82.1404710
  61.6742100  32.4898900  81.0822640  62.1907120  31.8786260  80.5570900
  62.3239480  32.9927680  81.5733650  64.4137600  33.3807390  81.9091620
  64.7015410  33.1261690  81.0324630  64.9260820  32.8284750  82.4997190
  65.6314610  17.1197590  82.4888130  64.8486400  17.5943090  82.7684890
  65.3377540  16.2152420  82.3801310  70.1835680  17.8220690  80.5337220
  70.6243770  17.7665790  79.6858820  69.9143270  18.7378700  80.6047400
  56.3527000  33.5928290  77.5069990  56.1849040  32.9598970  78.2051880
  55.4861510  33.7987690  77.1564180  56.9755020  17.4245070  75.0101850
  57.7334380  17.5373950  74.4365880  56.5132190  18.2614270  74.9645280
  63.5168830  19.5384340  78.0004160  62.7043340  19.1641230  77.6600040
  64.0210470  18.7829420  78.3025350  68.0193810  16.2026790  79.2387230
  68.6223180  16.7747000  79.7135750  67.2786800  16.7666230  79.0161130
  57.9589700  32.2861520  74.9520130  57.4337320  32.6669550  74.2482090
  57.8834280  32.9112290  75.6729840  59.3480170  17.9509120  73.5503820
  59.8772930  17.1638920  73.4211770  59.9808490  18.6300310  73.7839350
  61.5418010  17.6884260  76.6049210  60.9120750  16.9871570  76.7719340
  61.0023150  18.4488390  76.3882370  60.5582670  34.2343900  73.8269380
  61.2901490  33.9503180  73.2793270  60.8176340  33.9957180  74.7168760
  59.7197460  30.3508630  73.8315710  59.0906340  30.8193730  74.3801540
  59.8345290  29.5057850  74.2661900  67.1747180  24.4014290  59.9816910
  67.0941230  23.4868900  59.7108620  66.7611600  24.8981360  59.2756620
  65.3065220  26.1793310  61.8626180  64.5307320  25.6993750  62.1524750
  65.9578150  25.4998960  61.6882340  59.3231050  26.4913120  62.7401940
  58.4915930  26.2361830  63.1398450  59.9312030  26.5623890  63.4759860
  69.3272650  30.5853500  60.6425310  68.8654180  29.8140740  60.9712480
  70.1398200  30.6119570  61.1477760  59.3032310  30.5253210  62.9359960
  59.6060350  29.6350950  62.7570180  60.0475900  31.0823430  62.7082210
  57.7323000  21.4515010  56.5244330  56.8439700  21.7930980  56.4224210
  58.0164190  21.2515330  55.6325160  55.6956010  24.0520660  62.4084030
  56.2672120  23.2842860  62.4087670  55.6957550  24.3509420  61.4990640
  65.5535960  32.8711510  60.2629300  64.9347400  33.3269010  59.6923740
  66.4087740  33.0262970  59.8619000  64.7474210  28.8550500  61.8696340
  64.6782490  27.9140440  61.7085470  65.5094070  28.9451910  62.4418910
  56.9380880  19.4605020  64.1952960  56.7583720  18.5630770  64.4755720
  56.5360960  20.0076890  64.8699910  65.7779380  21.6620880  62.0965270
  66.1544200  20.7892760  61.9838940  65.6798890  21.9979580  61.2055710
  59.9084390  20.0346510  57.5582710  60.0151140  20.9350240  57.8651470
  58.9976750  19.9864480  57.2677360  69.5603500  19.1571320  59.0293610
  70.3813120  18.6667890  59.0719090  69.5937580  19.7468980  59.7825450
  57.5567550  21.9565520  62.8035300  58.2377660  22.2203890  63.4222700
  57.2415600  21.1166390  63.1373310  61.7492120  23.0032880  61.8907890
  62.2570340  23.5013850  62.5312910  62.2805360  22.2268080  61.7147250
  60.0328220  17.6431440  66.1571310  60.0346660  18.1603830  65.3517210
  59.2032530  17.1661620  66.1341240  66.4199310  27.7550750  57.6561210
  65.8016580  28.2200200  57.0923930  66.9322560  28.4478230  58.0730720
  61.2831070  27.2826620  64.3344810  60.9500450  27.9095540  64.9765880
  61.4597750  27.8088500  63.5546480  69.7964980  21.0971700  61.8021150
  69.0920550  21.3856590  62.3824260  70.1577140  21.9071810  61.4420710
  59.7143550  19.3541400  64.1641760  60.0560360  20.1983450  63.8695630
  58.7759360  19.5025140  64.2807100  60.4950170  29.2507420  66.1493990
  61.1124170  29.9258500  65.8678440  59.6343290  29.6595400  66.0581490
  63.3971440  16.8423670  60.4886350  63.7046420  16.2870560  59.7721850
  62.4672140  16.9768130  60.3059340  68.9486500  32.5590960  62.7793810
  68.9613660  32.1553250  61.9116070  68.3961720  33.3338250  62.6755240
  70.2431920  29.2807180  57.8683980  70.1328250  28.3381510  57.9933400
  70.2400170  29.6422820  58.7546740  68.3471940  27.4620800  64.1076420
  68.7640730  27.2480910  63.2729880  69.0711760  27.7193590  64.6785040
  65.7852200  24.9072500  57.2246470  64.8581480  24.8409880  57.4534940
  65.9377020  25.8452630  57.1101710  65.7721280  21.1789500  54.2213630
  64.8324950  21.3403460  54.3066090  66.0904540  21.8975180  53.6749620
  69.8149490  26.4692800  57.7281720  69.1961910  26.1312350  57.0808020
  69.7973940  25.8252560  58.4360910  69.2576050  22.6477340  65.1447530
  68.8447230  23.4731050  65.3987520  68.5252000  22.0622380  64.9523890
  61.8590540  29.1204800  62.1705410  61.5618830  28.5150270  61.4913190
  62.8090360  29.1582110  62.0594770  60.1037460  22.2080450  63.7865240
  60.6552050  22.3175790  63.0118490  60.6180970  22.5818050  64.5020470
  69.9476150  32.6936670  65.8328510  69.4706710  33.5008860  65.6401120
  69.2637940  32.0415000  65.9854720  60.9508970  28.8586490  68.8213210
  60.0537500  29.0826460  69.0686610  60.9761840  28.9821430  67.8724610
  67.9914190  25.7079610  54.7354470  68.4307470  24.8702040  54.5892290
  68.7042610  26.3409010  54.8218610  59.7780190  25.7299810  67.3970580
  59.6387960  26.6022610  67.7657980  58.8961550  25.3872620  67.2518520
  66.1009570  30.6475680  58.7035710  66.5405480  31.3900010  58.2891100
  66.0396460  30.8902250  59.6274670  61.5760540  31.6721510  69.6055730
  61.5475970  32.0764460  68.7384160  61.4125510  30.7431870  69.4427330
  55.7298840  27.4997360  63.3141490  55.8079260  27.6346130  62.3697210
  56.3440520  26.7913250  63.5069610  66.7925350  33.3489460  66.6314720
  67.3070020  33.2597470  67.4337150  65.9494430  33.6949160  66.9242630
  68.7679750  33.6344800  56.0598720  68.6080890  33.3447740  56.9580550
  68.6026460  32.8584930  55.5243950  61.2468130  33.4143330  57.8370340
  61.0710610  32.4978870  57.6238140  60.3923870  33.7730620  58.0768140
  68.4705880  31.1432360  54.6196720  67.7771040  31.1409650  53.9599000
  69.2128740  30.7191680  54.1890890  68.0355810  32.7695070  58.6945210
  68.4912760  31.9884450  59.0083830  68.3748330  33.4801890  59.2386390
  55.7858360  28.5411530  65.8535950  55.9489400  28.0716890  65.0355320
  56.2510810  28.0335090  66.5184790  60.5577130  17.6717290  60.8896520
  60.1145280  18.4526830  60.5581040  61.1162120  17.9947180  61.5967460
  64.8446940  20.5385810  66.4931840  64.3826310  20.7468830  67.3051780
  64.4425050  19.7245160  66.1902510  69.8451450  21.7594760  67.6228500
  68.9945040  21.4600510  67.9437570  69.6853240  22.0036770  66.7112320
  66.9401160  23.2596510  69.7227290  67.2654570  22.4260260  69.3829520
  67.7281490  23.7825030  69.8705620  63.6735950  17.2927990  55.7702350
  63.0490130  17.2887860  56.4955660  63.5866070  16.4258950  55.3738320
  62.5953030  18.2164620  62.7486120  62.8925360  19.1227450  62.6678140
  63.1438590  17.7283400  62.1345690  60.3491350  22.7950860  58.6177770
  60.1232270  22.5788030  59.5224390  59.5683880  23.2279320  58.2723740
  67.5789110  22.8014230  57.2168420  66.9798000  23.5250030  57.0332040
  68.1268720  22.7391010  56.4344870  62.7890560  23.6936440  69.2838040
  62.6934160  22.7531170  69.1338440  63.6322540  23.9151510  68.8886110
  66.1853980  21.4377770  59.2471700  66.5783550  21.7549970  58.4340390
  66.5470830  20.5589650  59.3616220  57.9201100  20.1050110  67.4371820
  57.5264490  20.9525320  67.6444600  57.2319500  19.4676480  67.6280460
  64.4946150  20.1885080  70.5068560  63.8044470  19.9957280  71.1414650
  65.2378450  20.4719720  71.0392860  55.2218150  18.0278570  61.4701900
  54.9331200  18.5981430  62.1826880  55.9663910  17.5483020  61.8333130
  66.7709120  24.0283520  63.3422480  66.0390240  24.5370330  63.6912580
  66.3733460  23.2113500  63.0411260  63.2086510  20.7037720  61.7474970
  63.2122570  20.2627670  60.8979510  64.1037630  21.0255050  61.8546790
  59.0588890  20.5864210  60.7069180  58.7188940  21.0639440  61.4636230
  58.2966210  20.1329330  60.3470280  63.2706660  21.7049800  54.7381730
  63.3919480  21.6636280  55.6867550  62.8855170  22.5673950  54.5828460
  67.2335030  19.4817200  62.7545420  67.2507770  19.9325850  63.5987270
  66.9850610  18.5822840  62.9678860  62.2828160  24.0150940  54.1365030
  61.7145060  23.5669190  53.5100940  62.9917160  24.3743720  53.6030180
  70.6605780  16.8949380  68.5931800  70.9851550  16.1639040  69.1189780
  70.6962290  16.5763020  67.6912790  63.5094480  24.7639500  63.4940380
  63.8764610  24.2898070  64.2401720  63.3199540  25.6381070  63.8348720
  56.3734970  19.5083190  59.6233850  56.0881890  19.1438860  60.4612470
  56.3113830  18.7763650  59.0096990  61.2993850  23.8048140  65.8124590
  60.9950920  24.6840120  66.0374950  62.2540310  23.8647930  65.8482030
  66.0473560  18.4012450  56.3447220  65.2338170  17.9025620  56.2692530
  65.8535510  19.2410700  55.9283570  65.9682420  27.0783550  68.0886830
  65.9019730  26.1579220  67.8344420  65.3387560  27.1758990  68.8031470
  68.7621950  22.7732100  54.6409380  69.6501570  23.0849330  54.4660720
  68.7327040  21.9004350  54.2489960  64.7582540  28.9455790  55.3197550
  65.0998240  29.6898020  54.8240870  63.9295250  29.2586910  55.6822380
  57.3557580  24.6450880  66.9595950  56.9972520  25.3104730  67.5469290
  57.0612140  23.8134430  67.3308570  60.5570700  25.1035120  69.8435500
  60.2570840  25.2492300  68.9463320  61.3281940  24.5440410  69.7508890
  65.8999150  29.9004120  67.8390630  65.9143690  28.9685080  67.6209540
  65.1924250  29.9863880  68.4780400  67.6409950  28.2671630  60.6843060
  67.9933770  27.6699760  60.0244430  66.7572280  27.9415860  60.8551310
  63.7273230  29.0269320  58.0913470  64.4144360  29.5738530  58.4721060
  62.9405650  29.5710050  58.1263080  63.0300440  26.0315350  57.7038830
  63.4863220  26.8420600  57.9299020  62.6788650  25.7138490  58.5357320
  65.3333050  31.5421690  64.9331130  65.9775270  31.7481070  65.6104550
  65.6962490  30.7810090  64.4801980  58.9312220  16.3753000  58.1761350
  58.8026850  16.3670900  59.1246270  58.1074240  16.7136090  57.8252360
  66.6065130  29.5454040  63.6508580  67.2487360  28.8447200  63.7640750
  67.1314480  30.3252480  63.4705470  70.4520850  29.8302660  53.3747720
  70.2258430  29.1133100  53.9672360  70.0617050  29.5815100  52.5369470
  68.3802750  30.3448940  66.8544640  68.7158990  30.9315630  67.5322560
  67.4603090  30.2141650  67.0842430  55.9306150  18.1344120  67.6368050
  55.2164670  18.3341040  68.2420660  56.3501190  17.3583690  68.0082850
  70.0337100  27.7474600  55.0361880  69.7458800  28.2087290  55.8239760
  70.8289270  27.2872370  55.3046100  64.2091330  30.3940270  70.0232700
  63.8888200  29.6749510  70.5678390  63.5349690  31.0695340  70.0968760
  62.2505500  31.2400720  54.9665850  62.2415600  31.9730410  54.3510360
  61.3303860  30.9932300  55.0592810  67.4244930  20.6266430  65.3869500
  67.7925750  19.8061640  65.7149070  66.5643130  20.6868320  65.8025150
  70.7906960  19.5823370  56.1957060  70.1620120  19.6869040  55.4815290
  70.2958880  19.8020150  56.9850940  65.2365100  31.3028960  53.6291040
  65.3377080  31.0992950  52.6993020  64.3366840  31.0487240  53.8338820
  62.7590990  21.8609320  57.6114940  62.0507140  22.3295660  58.0528550
  63.0435470  21.2031330  58.2460130  64.3846920  23.2806020  65.6107470
  64.8832170  23.7551840  66.2759320  64.5269870  22.3569540  65.8177500
  66.7906420  18.5859980  59.0510730  66.6674200  18.6046110  58.1020240
  67.7390980  18.6338920  59.1709130  63.8783210  33.8215280  58.3238710
  64.1324710  33.7836670  57.4018080  62.9295690  33.6948610  58.3166960
  60.9626010  20.1694400  54.9865650  61.8116540  20.6064550  54.9205840
  60.5957280  20.4814660  55.8137710  69.8835790  24.7407160  59.8997220
  68.9425930  24.7557390  60.0744910  70.1979860  23.9543120  60.3457520
  59.3578900  34.0047220  61.2468610  60.0941380  33.4562680  61.5177180
  59.7419820  34.8703230  61.1074600  62.4681210  33.1777530  53.0694180
  63.2609820  33.4666360  52.6175970  61.9485560  32.7469700  52.3906660
  67.2001810  29.2973160  70.3829600  66.5939970  29.3204760  69.6425350
  66.8955920  28.5656200  70.9196850  68.6302180  33.0253450  68.9939010
  69.5823930  32.9411470  68.9439250  68.4830400  33.6895160  69.6672800
  56.0834990  25.6766750  69.3790240  56.5874010  25.0974030  69.9506470
  55.3442410  25.9606980  69.9166610  62.9858610  28.3980940  52.9336530
  62.8809250  27.7833290  53.6597910  62.8182830  27.8746830  52.1499540
  63.1372930  27.0837740  68.9125760  62.3718600  27.6522740  68.8280430
  63.3188890  26.7913950  68.0193990  66.2261340  27.4600970  53.5378520
  65.6771440  27.9070270  54.1821260  66.8480600  26.9550220  54.0616190
  70.2796280  28.8143070  69.4700780  71.0205750  29.1518830  68.9668240
  69.5168960  28.9835130  68.9170550  58.1158070  23.8196340  70.2740310
  58.1563410  23.5210210  71.1825540  58.9703570  24.2203950  70.1147830
  60.0563880  22.3988440  68.2414800  59.5260340  21.9079390  67.6138140
  60.7251950  22.8272640  67.7072730  64.4064100  25.4429500  52.6820920
  64.9269760  24.7278520  52.3162070  65.0532500  26.0815370  52.9821430
  68.9541940  26.8657900  68.0055990  69.3682960  27.0202980  68.8546410
  68.0192940  26.9913120  68.1681770  69.4264110  24.2054060  70.0095140
  70.0084880  23.4506380  69.9215620  69.6025880  24.7361500  69.2326620
  60.5436180  19.3650810  68.3212090  60.4493050  18.7471560  67.5962960
  59.9633570  20.0917100  68.0942000  63.3097620  17.9224050  65.3539480
  62.8614920  17.9448310  64.5085030  62.6762820  17.5243070  65.9509780
  63.7157170  26.8178380  65.9751920  64.1345280  27.6611110  65.8028160
  62.7965800  26.9550420  65.7458700  66.0521070  24.5494560  67.3589760
  66.1717280  23.9535700  68.0984600  66.9115070  24.5864250  66.9391060
  68.3908970  25.1031750  65.9352270  67.8644190  25.6274370  65.3317410
  68.7340310  25.7359140  66.5662000  61.5664590  33.1231390  67.0909650
  61.0285680  33.8477450  66.7718350  61.8198550  32.6461730  66.3006990
  62.8189840  21.0915910  68.6165580  63.4089530  20.7831760  69.3043400
  62.0010080  20.6195660  68.7725480  67.6383270  20.7081720  68.8498600
  66.9498790  20.0463260  68.7848590  68.3589290  20.2619990  69.2947060
  68.2683670  17.3033350  54.9088860  68.5485960  16.4601250  55.2648280
  67.4949400  17.5356460  55.4227610  59.5878160  19.5925740  52.3679860
  59.8904060  19.5993170  51.4599010  60.3272750  19.2423600  52.8647520
  64.4226800  34.3582600  67.3496300  64.3485500  35.2617740  67.6568670
  63.5205640  34.0394500  67.3218370  62.8063090  18.5360360  53.3536060
  62.4585090  17.8584350  52.7738510  63.0075860  18.0749870  54.1679450
  64.9712130  33.5241110  54.9722660  65.8662920  33.8626080  54.9941420
  65.0029760  32.8020520  54.3446940  70.6358120  28.7796760  65.7765020
  69.8217960  29.2093920  66.0390810  71.0432320  29.3915170  65.1634070
  69.0959170  19.8589300  53.9718920  69.5144050  19.6720280  53.1315580
  68.7895230  19.0068350  54.2821850  57.1844660  25.4500580  64.2903770
  57.5517700  25.3627980  65.1699790  56.6155480  24.6867130  64.1910630
  56.7360660  22.3609670  68.1962190  55.8416710  22.3276430  68.5355900
  57.2758210  22.5596460  68.9613440  57.5508180  17.3851810  52.6422790
  58.2736310  17.9260750  52.9604010  57.8232700  17.1115230  51.7664330
  57.2400370  16.6358000  62.5445410  57.8876560  16.0855380  62.1040570
  57.6602210  16.8901150  63.3661220  56.9932370  16.7913670  65.2870730
  56.6447190  17.2477490  66.0528910  56.6620070  15.8970800  65.3693160
  62.3002770  31.5192860  65.0533640  62.0594130  31.7867420  64.1664160
  63.2405410  31.6898590  65.1084500  64.5057190  17.9825550  68.8090150
  64.4446080  18.5747380  69.5585560  65.4457570  17.8751510  68.6640410
  67.1431750  17.6395610  68.4482440  67.7572160  17.9574900  67.7863520
  67.6881310  17.1544200  69.0678300  57.6653010  16.3189870  68.5621500
  58.2136000  16.1377920  67.7987610  57.7308320  15.5283980  69.0977810
  67.8839790  16.2027750  64.7751730  67.0099630  16.5362860  64.5724660
  67.7750540  15.7300930  65.6003600  68.7911770  18.4098620  66.1593450
  68.4625130  17.5950380  65.7795180  69.7394070  18.3668430  66.0359140
  58.0697000  30.2753900  65.5229740  57.3431060  29.6559190  65.4555690
  58.1306150  30.6694510  64.6527820  61.6742100  32.4898900  62.3079150
  62.1907120  31.8786260  61.7827410  62.3239480  32.9927680  62.7990160
  64.4137600  33.3807390  63.1348130  64.7015410  33.1261690  62.2581140
  64.9260820  32.8284750  63.7253700  65.6314610  17.1197590  63.7144640
  64.8486400  17.5943090  63.9941400  65.3377540  16.2152420  63.6057820
  70.1835680  17.8220690  61.7593730  70.6243770  17.7665790  60.9115330
  69.9143270  18.7378700  61.8303910  56.9755020  17.4245070  56.2358360
  57.7334380  17.5373950  55.6622390  56.5132190  18.2614270  56.1901790
  63.5168830  19.5384340  59.2260670  62.7043340  19.1641230  58.8856550
  64.0210470  18.7829420  59.5281860  68.0193810  16.2026790  60.4643740
  68.6223180  16.7747000  60.9392260  67.2786800  16.7666230  60.2417640
  59.3480170  17.9509120  54.7760330  59.8772930  17.1638920  54.6468280
  59.9808490  18.6300310  55.0095860  61.5418010  17.6884260  57.8305720
  60.9120750  16.9871570  57.9975850  61.0023150  18.4488390  57.6138880
  64.4809960  34.3023490  70.5016330  65.4077270  34.0667760  70.5452290
  64.4660390  35.1295490  70.0202360  61.6673570  16.9668240  70.2658210
  61.3857840  17.4701840  69.5019030  62.0493270  16.1689990  69.9000340
  60.5582670  34.2343900  55.0525890  61.2901490  33.9503180  54.5049780
  60.8176340  33.9957180  55.9425270  68.2689030  16.3821820  70.8438680
  68.1554480  16.7016430  71.7390200  69.0858770  16.7834330  70.5475960
  67.1747180  24.4014290  41.2073420  67.0941230  23.4868900  40.9365130
  66.7611600  24.8981360  40.5013130  65.3065220  26.1793310  43.0882690
  64.5307320  25.6993750  43.3781260  65.9578150  25.4998960  42.9138850
  59.3231050  26.4913120  43.9658450  58.4915930  26.2361830  44.3654960
  59.9312030  26.5623890  44.7016370  69.3272650  30.5853500  41.8681820
  68.8654180  29.8140740  42.1968990  70.1398200  30.6119570  42.3734270
  57.7323000  21.4515010  37.7500840  56.8439700  21.7930980  37.6480720
  58.0164190  21.2515330  36.8581670  65.5535960  32.8711510  41.4885810
  64.9347400  33.3269010  40.9180250  66.4087740  33.0262970  41.0875510
  64.7474210  28.8550500  43.0952850  64.6782490  27.9140440  42.9341980
  65.5094070  28.9451910  43.6675420  56.9380880  19.4605020  45.4209470
  56.7583720  18.5630770  45.7012230  56.5360960  20.0076890  46.0956420
  65.7779380  21.6620880  43.3221780  66.1544200  20.7892760  43.2095450
  65.6798890  21.9979580  42.4312220  59.9084390  20.0346510  38.7839220
  60.0151140  20.9350240  39.0907980  58.9976750  19.9864480  38.4933870
  69.5603500  19.1571320  40.2550120  70.3813120  18.6667890  40.2975600
  69.5937580  19.7468980  41.0081960  57.5567550  21.9565520  44.0291810
  58.2377660  22.2203890  44.6479210  57.2415600  21.1166390  44.3629820
  61.7492120  23.0032880  43.1164400  62.2570340  23.5013850  43.7569420
  62.2805360  22.2268080  42.9403760  60.0328220  17.6431440  47.3827820
  60.0346660  18.1603830  46.5773720  59.2032530  17.1661620  47.3597750
  66.4199310  27.7550750  38.8817720  65.8016580  28.2200200  38.3180440
  66.9322560  28.4478230  39.2987230  61.2831070  27.2826620  45.5601320
  60.9500450  27.9095540  46.2022390  61.4597750  27.8088500  44.7802990
  69.7964980  21.0971700  43.0277660  69.0920550  21.3856590  43.6080770
  70.1577140  21.9071810  42.6677220  59.7143550  19.3541400  45.3898270
  60.0560360  20.1983450  45.0952140  58.7759360  19.5025140  45.5063610
  60.4950170  29.2507420  47.3750500  61.1124170  29.9258500  47.0934950
  59.6343290  29.6595400  47.2838000  63.3971440  16.8423670  41.7142860
  63.7046420  16.2870560  40.9978360  62.4672140  16.9768130  41.5315850
  68.9486500  32.5590960  44.0050320  68.9613660  32.1553250  43.1372580
  68.3961720  33.3338250  43.9011750  70.2431920  29.2807180  39.0940490
  70.1328250  28.3381510  39.2189910  70.2400170  29.6422820  39.9803250
  68.3471940  27.4620800  45.3332930  68.7640730  27.2480910  44.4986390
  69.0711760  27.7193590  45.9041550  65.7852200  24.9072500  38.4502980
  64.8581480  24.8409880  38.6791450  65.9377020  25.8452630  38.3358220
  65.7721280  21.1789500  35.4470140  64.8324950  21.3403460  35.5322600
  66.0904540  21.8975180  34.9006130  69.8149490  26.4692800  38.9538230
  69.1961910  26.1312350  38.3064530  69.7973940  25.8252560  39.6617420
  69.2576050  22.6477340  46.3704040  68.8447230  23.4731050  46.6244030
  68.5252000  22.0622380  46.1780400  61.3908840  25.4337240  41.2322710
  60.9865840  24.7214490  40.7368610  61.4771960  25.0890480  42.1210750
  61.8590540  29.1204800  43.3961920  61.5618830  28.5150270  42.7169700
  62.8090360  29.1582110  43.2851280  60.1037460  22.2080450  45.0121750
  60.6552050  22.3175790  44.2375000  60.6180970  22.5818050  45.7276980
  69.9476150  32.6936670  47.0585020  69.4706710  33.5008860  46.8657630
  69.2637940  32.0415000  47.2111230  60.9508970  28.8586490  50.0469720
  60.0537500  29.0826460  50.2943120  60.9761840  28.9821430  49.0981120
  67.9914190  25.7079610  35.9610980  68.4307470  24.8702040  35.8148800
  68.7042610  26.3409010  36.0475120  66.1009570  30.6475680  39.9292220
  66.5405480  31.3900010  39.5147610  66.0396460  30.8902250  40.8531180
  61.5760540  31.6721510  50.8312240  61.5475970  32.0764460  49.9640670
  61.4125510  30.7431870  50.6683840  66.7925350  33.3489460  47.8571230
  67.3070020  33.2597470  48.6593660  65.9494430  33.6949160  48.1499140
  68.7679750  33.6344800  37.2855230  68.6080890  33.3447740  38.1837060
  68.6026460  32.8584930  36.7500460  61.2468130  33.4143330  39.0626850
  61.0710610  32.4978870  38.8494650  60.3923870  33.7730620  39.3024650
  68.4705880  31.1432360  35.8453230  67.7771040  31.1409650  35.1855510
  69.2128740  30.7191680  35.4147400  68.0355810  32.7695070  39.9201720
  68.4912760  31.9884450  40.2340340  68.3748330  33.4801890  40.4642900
  60.5577130  17.6717290  42.1153030  60.1145280  18.4526830  41.7837550
  61.1162120  17.9947180  42.8223970  64.8446940  20.5385810  47.7188350
  64.3826310  20.7468830  48.5308290  64.4425050  19.7245160  47.4159020
  69.8451450  21.7594760  48.8485010  68.9945040  21.4600510  49.1694080
  69.6853240  22.0036770  47.9368830  66.9401160  23.2596510  50.9483800
  67.2654570  22.4260260  50.6086030  67.7281490  23.7825030  51.0962130
  63.6735950  17.2927990  36.9958860  63.0490130  17.2887860  37.7212170
  63.5866070  16.4258950  36.5994830  62.5953030  18.2164620  43.9742630
  62.8925360  19.1227450  43.8934650  63.1438590  17.7283400  43.3602200
  60.3491350  22.7950860  39.8434280  60.1232270  22.5788030  40.7480900
  59.5683880  23.2279320  39.4980250  67.5789110  22.8014230  38.4424930
  66.9798000  23.5250030  38.2588550  68.1268720  22.7391010  37.6601380
  62.7890560  23.6936440  50.5094550  62.6934160  22.7531170  50.3594950
  63.6322540  23.9151510  50.1142620  66.1853980  21.4377770  40.4728210
  66.5783550  21.7549970  39.6596900  66.5470830  20.5589650  40.5872730
  57.9201100  20.1050110  48.6628330  57.5264490  20.9525320  48.8701110
  57.2319500  19.4676480  48.8536970  64.4946150  20.1885080  51.7325070
  63.8044470  19.9957280  52.3671160  65.2378450  20.4719720  52.2649370
  55.2218150  18.0278570  42.6958410  54.9331200  18.5981430  43.4083390
  55.9663910  17.5483020  43.0589640  66.7709120  24.0283520  44.5678990
  66.0390240  24.5370330  44.9169090  66.3733460  23.2113500  44.2667770
  63.2086510  20.7037720  42.9731480  63.2122570  20.2627670  42.1236020
  64.1037630  21.0255050  43.0803300  59.0588890  20.5864210  41.9325690
  58.7188940  21.0639440  42.6892740  58.2966210  20.1329330  41.5726790
  63.2706660  21.7049800  35.9638240  63.3919480  21.6636280  36.9124060
  62.8855170  22.5673950  35.8084970  67.2335030  19.4817200  43.9801930
  67.2507770  19.9325850  44.8243780  66.9850610  18.5822840  44.1935370
  62.2828160  24.0150940  35.3621540  61.7145060  23.5669190  34.7357450
  62.9917160  24.3743720  34.8286690  70.6605780  16.8949380  49.8188310
  70.9851550  16.1639040  50.3446290  70.6962290  16.5763020  48.9169300
  63.5094480  24.7639500  44.7196890  63.8764610  24.2898070  45.4658230
  63.3199540  25.6381070  45.0605230  56.3734970  19.5083190  40.8490360
  56.0881890  19.1438860  41.6868980  56.3113830  18.7763650  40.2353500
  61.2993850  23.8048140  47.0381100  60.9950920  24.6840120  47.2631460
  62.2540310  23.8647930  47.0738540  59.8275640  28.0109130  37.6347950
  59.0537900  27.4706750  37.4746670  60.5570270  27.4915740  37.2965710
  66.0473560  18.4012450  37.5703730  65.2338170  17.9025620  37.4949040
  65.8535510  19.2410700  37.1540080  65.9682420  27.0783550  49.3143340
  65.9019730  26.1579220  49.0600930  65.3387560  27.1758990  50.0287980
  68.7621950  22.7732100  35.8665890  69.6501570  23.0849330  35.6917230
  68.7327040  21.9004350  35.4746470  59.8713040  27.6789510  41.2726760
  60.3891710  26.8757770  41.2183650  59.4197060  27.6168650  42.1143590
  64.7582540  28.9455790  36.5454060  65.0998240  29.6898020  36.0497380
  63.9295250  29.2586910  36.9078890  57.3557580  24.6450880  48.1852460
  56.9972520  25.3104730  48.7725800  57.0612140  23.8134430  48.5565080
  65.8999150  29.9004120  49.0647140  65.9143690  28.9685080  48.8466050
  65.1924250  29.9863880  49.7036910  67.6409950  28.2671630  41.9099570
  67.9933770  27.6699760  41.2500940  66.7572280  27.9415860  42.0807820
  63.7273230  29.0269320  39.3169980  64.4144360  29.5738530  39.6977570
  62.9405650  29.5710050  39.3519590  63.0300440  26.0315350  38.9295340
  63.4863220  26.8420600  39.1555530  62.6788650  25.7138490  39.7613830
  65.3333050  31.5421690  46.1587640  65.9775270  31.7481070  46.8361060
  65.6962490  30.7810090  45.7058490  58.9312220  16.3753000  39.4017860
  58.8026850  16.3670900  40.3502780  58.1074240  16.7136090  39.0508870
  66.6065130  29.5454040  44.8765090  67.2487360  28.8447200  44.9897260
  67.1314480  30.3252480  44.6961980  70.4520850  29.8302660  34.6004230
  70.2258430  29.1133100  35.1928870  70.0617050  29.5815100  33.7625980
  68.3802750  30.3448940  48.0801150  68.7158990  30.9315630  48.7579070
  67.4603090  30.2141650  48.3098940  56.2336880  33.8569520  35.3748690
  56.5934520  34.4558860  34.7205960  56.0929220  34.4029410  36.1483720
  55.9306150  18.1344120  48.8624560  55.2164670  18.3341040  49.4677170
  56.3501190  17.3583690  49.2339360  70.0337100  27.7474600  36.2618390
  69.7458800  28.2087290  37.0496270  70.8289270  27.2872370  36.5302610
  64.2091330  30.3940270  51.2489210  63.8888200  29.6749510  51.7934900
  63.5349690  31.0695340  51.3225270  62.2505500  31.2400720  36.1922360
  62.2415600  31.9730410  35.5766870  61.3303860  30.9932300  36.2849320
  57.8512140  26.4615610  36.9369120  57.2440090  27.2014510  36.9464420
  58.3261490  26.5514970  36.1107320  67.4244930  20.6266430  46.6126010
  67.7925750  19.8061640  46.9405580  66.5643130  20.6868320  47.0281660
  70.7906960  19.5823370  37.4213570  70.1620120  19.6869040  36.7071800
  70.2958880  19.8020150  38.2107450  65.2365100  31.3028960  34.8547550
  65.3377080  31.0992950  33.9249530  64.3366840  31.0487240  35.0595330
  62.7590990  21.8609320  38.8371450  62.0507140  22.3295660  39.2785060
  63.0435470  21.2031330  39.4716640  64.3846920  23.2806020  46.8363980
  64.8832170  23.7551840  47.5015830  64.5269870  22.3569540  47.0434010
  66.7906420  18.5859980  40.2767240  66.6674200  18.6046110  39.3276750
  67.7390980  18.6338920  40.3965640  63.8783210  33.8215280  39.5495220
  64.1324710  33.7836670  38.6274590  62.9295690  33.6948610  39.5423470
  60.9626010  20.1694400  36.2122160  61.8116540  20.6064550  36.1462350
  60.5957280  20.4814660  37.0394220  69.8835790  24.7407160  41.1253730
  68.9425930  24.7557390  41.3001420  70.1979860  23.9543120  41.5714030
  58.5564190  23.8551830  35.3690580  58.6367780  22.9079340  35.4807980
  59.4483940  24.1858710  35.4751240  62.4681210  33.1777530  34.2950690
  63.2609820  33.4666360  33.8432480  61.9485560  32.7469700  33.6163170
  67.2001810  29.2973160  51.6086110  66.5939970  29.3204760  50.8681860
  66.8955920  28.5656200  52.1453360  68.6302180  33.0253450  50.2195520
  69.5823930  32.9411470  50.1695760  68.4830400  33.6895160  50.8929310
  62.9858610  28.3980940  34.1593040  62.8809250  27.7833290  34.8854420
  62.8182830  27.8746830  33.3756050  63.1372930  27.0837740  50.1382270
  62.3718600  27.6522740  50.0536940  63.3188890  26.7913950  49.2450500
  66.2261340  27.4600970  34.7635030  65.6771440  27.9070270  35.4077770
  66.8480600  26.9550220  35.2872700  70.2796280  28.8143070  50.6957290
  71.0205750  29.1518830  50.1924750  69.5168960  28.9835130  50.1427060
  61.8936460  26.4191890  36.6600330  62.3152880  26.2531760  37.5031720
  62.0187300  25.6092120  36.1655470  64.4064100  25.4429500  33.9077430
  64.9269760  24.7278520  33.5418580  65.0532500  26.0815370  34.2077940
  68.9541940  26.8657900  49.2312500  69.3682960  27.0202980  50.0802920
  68.0192940  26.9913120  49.3938280  69.4264110  24.2054060  51.2351650
  70.0084880  23.4506380  51.1472130  69.6025880  24.7361500  50.4583130
  60.5436180  19.3650810  49.5468600  60.4493050  18.7471560  48.8219470
  59.9633570  20.0917100  49.3198510  63.3097620  17.9224050  46.5795990
  62.8614920  17.9448310  45.7341540  62.6762820  17.5243070  47.1766290
  63.7157170  26.8178380  47.2008430  64.1345280  27.6611110  47.0284670
  62.7965800  26.9550420  46.9715210  66.0521070  24.5494560  48.5846270
  66.1717280  23.9535700  49.3241110  66.9115070  24.5864250  48.1647570
  68.3908970  25.1031750  47.1608780  67.8644190  25.6274370  46.5573920
  68.7340310  25.7359140  47.7918510  60.7895360  22.4925120  33.6058490
  60.5884420  21.6292480  33.9671830  60.6187410  22.4058480  32.6680090
  61.5664590  33.1231390  48.3166160  61.0285680  33.8477450  47.9974860
  61.8198550  32.6461730  47.5263500  62.8189840  21.0915910  49.8422090
  63.4089530  20.7831760  50.5299910  62.0010080  20.6195660  49.9981990
  67.6383270  20.7081720  50.0755110  66.9498790  20.0463260  50.0105100
  68.3589290  20.2619990  50.5203570  68.2683670  17.3033350  36.1345370
  68.5485960  16.4601250  36.4904790  67.4949400  17.5356460  36.6484120
  59.5878160  19.5925740  33.5936370  59.8904060  19.5993170  32.6855520
  60.3272750  19.2423600  34.0904030  64.4226800  34.3582600  48.5752810
  64.3485500  35.2617740  48.8825180  63.5205640  34.0394500  48.5474880
  62.8063090  18.5360360  34.5792570  62.4585090  17.8584350  33.9995020
  63.0075860  18.0749870  35.3935960  64.9712130  33.5241110  36.1979170
  65.8662920  33.8626080  36.2197930  65.0029760  32.8020520  35.5703450
  60.4216010  30.0166200  39.5388400  60.1211550  29.8931170  40.4392310
  60.3153500  29.1574790  39.1304130  70.6358120  28.7796760  47.0021530
  69.8217960  29.2093920  47.2647320  71.0432320  29.3915170  46.3890580
  69.0959170  19.8589300  35.1975430  69.5144050  19.6720280  34.3572090
  68.7895230  19.0068350  35.5078360  57.1844660  25.4500580  45.5160280
  57.5517700  25.3627980  46.3956300  56.6155480  24.6867130  45.4167140
  55.3606810  22.2746940  36.9182270  54.4570890  22.5377140  36.7433930
  55.8447430  22.5458110  36.1382230  57.9034020  21.3312480  34.8276650
  58.6125720  20.9095700  34.3423930  57.1873960  21.3987710  34.1960000
  57.5508180  17.3851810  33.8679300  58.2736310  17.9260750  34.1860520
  57.8232700  17.1115230  32.9920840  57.2400370  16.6358000  43.7701920
  57.8876560  16.0855380  43.3297080  57.6602210  16.8901150  44.5917730
  56.9932370  16.7913670  46.5127240  56.6447190  17.2477490  47.2785420
  56.6620070  15.8970800  46.5949670  62.3002770  31.5192860  46.2790150
  62.0594130  31.7867420  45.3920670  63.2405410  31.6898590  46.3341010
  64.5057190  17.9825550  50.0346660  64.4446080  18.5747380  50.7842070
  65.4457570  17.8751510  49.8896920  67.1431750  17.6395610  49.6738950
  67.7572160  17.9574900  49.0120030  67.6881310  17.1544200  50.2934810
  57.6653010  16.3189870  49.7878010  58.2136000  16.1377920  49.0244120
  57.7308320  15.5283980  50.3234320  58.4384770  32.9095520  47.7978210
  57.8445090  32.7780220  48.5368250  58.4308610  32.0733660  47.3320310
  67.8839790  16.2027750  46.0008240  67.0099630  16.5362860  45.7981170
  67.7750540  15.7300930  46.8260110  68.7911770  18.4098620  47.3849960
  68.4625130  17.5950380  47.0051690  69.7394070  18.3668430  47.2615650
  61.6742100  32.4898900  43.5335660  62.1907120  31.8786260  43.0083920
  62.3239480  32.9927680  44.0246670  64.4137600  33.3807390  44.3604640
  64.7015410  33.1261690  43.4837650  64.9260820  32.8284750  44.9510210
  65.6314610  17.1197590  44.9401150  64.8486400  17.5943090  45.2197910
  65.3377540  16.2152420  44.8314330  70.1835680  17.8220690  42.9850240
  70.6243770  17.7665790  42.1371840  69.9143270  18.7378700  43.0560420
  56.9755020  17.4245070  37.4614870  57.7334380  17.5373950  36.8878900
  56.5132190  18.2614270  37.4158300  63.5168830  19.5384340  40.4517180
  62.7043340  19.1641230  40.1113060  64.0210470  18.7829420  40.7538370
  68.0193810  16.2026790  41.6900250  68.6223180  16.7747000  42.1648770
  67.2786800  16.7666230  41.4674150  57.9589700  32.2861520  37.4033150
  57.4337320  32.6669550  36.6995110  57.8834280  32.9112290  38.1242860
  59.3480170  17.9509120  36.0016840  59.8772930  17.1638920  35.8724790
  59.9808490  18.6300310  36.2352370  61.5418010  17.6884260  39.0562230
  60.9120750  16.9871570  39.2232360  61.0023150  18.4488390  38.8395390
  64.4809960  34.3023490  51.7272840  65.4077270  34.0667760  51.7708800
  64.4660390  35.1295490  51.2458870  61.6673570  16.9668240  51.4914720
  61.3857840  17.4701840  50.7275540  62.0493270  16.1689990  51.1256850
  60.5582670  34.2343900  36.2782400  61.2901490  33.9503180  35.7306290
  60.8176340  33.9957180  37.1681780  59.7197460  30.3508630  36.2828730
  59.0906340  30.8193730  36.8314560  59.8345290  29.5057850  36.7174920
  68.2689030  16.3821820  52.0695190  68.1554480  16.7016430  52.9646710
  69.0858770  16.7834330  51.7732470  67.1747180  24.4014290  22.4329930
  67.0941230  23.4868900  22.1621640  66.7611600  24.8981360  21.7269640
  65.3065220  26.1793310  24.3139200  64.5307320  25.6993750  24.6037770
  65.9578150  25.4998960  24.1395360  69.3272650  30.5853500  23.0938330
  68.8654180  29.8140740  23.4225500  70.1398200  30.6119570  23.5990780
  57.7323000  21.4515010  18.9757350  56.8439700  21.7930980  18.8737230
  58.0164190  21.2515330  18.0838180  65.5535960  32.8711510  22.7142320
  64.9347400  33.3269010  22.1436760  66.4087740  33.0262970  22.3132020
  64.7474210  28.8550500  24.3209360  64.6782490  27.9140440  24.1598490
  65.5094070  28.9451910  24.8931930  56.9380880  19.4605020  26.6465980
  56.7583720  18.5630770  26.9268740  56.5360960  20.0076890  27.3212930
  65.7779380  21.6620880  24.5478290  66.1544200  20.7892760  24.4351960
  65.6798890  21.9979580  23.6568730  59.9084390  20.0346510  20.0095730
  60.0151140  20.9350240  20.3164490  58.9976750  19.9864480  19.7190380
  69.5603500  19.1571320  21.4806630  70.3813120  18.6667890  21.5232110
  69.5937580  19.7468980  22.2338470  61.7492120  23.0032880  24.3420910
  62.2570340  23.5013850  24.9825930  62.2805360  22.2268080  24.1660270
  60.0328220  17.6431440  28.6084330  60.0346660  18.1603830  27.8030230
  59.2032530  17.1661620  28.5854260  66.4199310  27.7550750  20.1074230
  65.8016580  28.2200200  19.5436950  66.9322560  28.4478230  20.5243740
  61.2831070  27.2826620  26.7857830  60.9500450  27.9095540  27.4278900
  61.4597750  27.8088500  26.0059500  69.7964980  21.0971700  24.2534170
  69.0920550  21.3856590  24.8337280  70.1577140  21.9071810  23.8933730
  59.7143550  19.3541400  26.6154780  60.0560360  20.1983450  26.3208650
  58.7759360  19.5025140  26.7320120  60.4950170  29.2507420  28.6007010
  61.1124170  29.9258500  28.3191460  59.6343290  29.6595400  28.5094510
  55.7882510  28.4407280  17.4813860  55.4110490  28.9294380  16.7498760
  56.0455580  29.1132560  18.1120390  63.3971440  16.8423670  22.9399370
  63.7046420  16.2870560  22.2234870  62.4672140  16.9768130  22.7572360
  68.9486500  32.5590960  25.2306830  68.9613660  32.1553250  24.3629090
  68.3961720  33.3338250  25.1268260  70.2431920  29.2807180  20.3197000
  70.1328250  28.3381510  20.4446420  70.2400170  29.6422820  21.2059760
  68.3471940  27.4620800  26.5589440  68.7640730  27.2480910  25.7242900
  69.0711760  27.7193590  27.1298060  65.7852200  24.9072500  19.6759490
  64.8581480  24.8409880  19.9047960  65.9377020  25.8452630  19.5614730
  65.7721280  21.1789500  16.6726650  64.8324950  21.3403460  16.7579110
  66.0904540  21.8975180  16.1262640  69.8149490  26.4692800  20.1794740
  69.1961910  26.1312350  19.5321040  69.7973940  25.8252560  20.8873930
  69.2576050  22.6477340  27.5960550  68.8447230  23.4731050  27.8500540
  68.5252000  22.0622380  27.4036910  61.3908840  25.4337240  22.4579220
  60.9865840  24.7214490  21.9625120  61.4771960  25.0890480  23.3467260
  61.8590540  29.1204800  24.6218430  61.5618830  28.5150270  23.9426210
  62.8090360  29.1582110  24.5107790  60.1037460  22.2080450  26.2378260
  60.6552050  22.3175790  25.4631510  60.6180970  22.5818050  26.9533490
  69.9476150  32.6936670  28.2841530  69.4706710  33.5008860  28.0914140
  69.2637940  32.0415000  28.4367740  60.9508970  28.8586490  31.2726230
  60.0537500  29.0826460  31.5199630  60.9761840  28.9821430  30.3237630
  67.9914190  25.7079610  17.1867490  68.4307470  24.8702040  17.0405310
  68.7042610  26.3409010  17.2731630  59.7780190  25.7299810  29.8483600
  59.6387960  26.6022610  30.2171000  58.8961550  25.3872620  29.7031540
  66.1009570  30.6475680  21.1548730  66.5405480  31.3900010  20.7404120
  66.0396460  30.8902250  22.0787690  61.5760540  31.6721510  32.0568750
  61.5475970  32.0764460  31.1897180  61.4125510  30.7431870  31.8940350
  58.0913470  24.3282220  19.9585870  57.9711070  25.0544310  19.3467140
  57.7814360  23.5585130  19.4813780  66.7925350  33.3489460  29.0827740
  67.3070020  33.2597470  29.8850170  65.9494430  33.6949160  29.3755650
  68.7679750  33.6344800  18.5111740  68.6080890  33.3447740  19.4093570
  68.6026460  32.8584930  17.9756970  61.2468130  33.4143330  20.2883360
  61.0710610  32.4978870  20.0751160  60.3923870  33.7730620  20.5281160
  68.4705880  31.1432360  17.0709740  67.7771040  31.1409650  16.4112020
  69.2128740  30.7191680  16.6403910  68.0355810  32.7695070  21.1458230
  68.4912760  31.9884450  21.4596850  68.3748330  33.4801890  21.6899410
  60.5577130  17.6717290  23.3409540  60.1145280  18.4526830  23.0094060
  61.1162120  17.9947180  24.0480480  64.8446940  20.5385810  28.9444860
  64.3826310  20.7468830  29.7564800  64.4425050  19.7245160  28.6415530
  69.8451450  21.7594760  30.0741520  68.9945040  21.4600510  30.3950590
  69.6853240  22.0036770  29.1625340  66.9401160  23.2596510  32.1740310
  67.2654570  22.4260260  31.8342540  67.7281490  23.7825030  32.3218640
  63.6735950  17.2927990  18.2215370  63.0490130  17.2887860  18.9468680
  63.5866070  16.4258950  17.8251340  62.5953030  18.2164620  25.1999140
  62.8925360  19.1227450  25.1191160  63.1438590  17.7283400  24.5858710
  60.3491350  22.7950860  21.0690790  60.1232270  22.5788030  21.9737410
  59.5683880  23.2279320  20.7236760  67.5789110  22.8014230  19.6681440
  66.9798000  23.5250030  19.4845060  68.1268720  22.7391010  18.8857890
  62.7890560  23.6936440  31.7351060  62.6934160  22.7531170  31.5851460
  63.6322540  23.9151510  31.3399130  66.1853980  21.4377770  21.6984720
  66.5783550  21.7549970  20.8853410  66.5470830  20.5589650  21.8129240
  57.9201100  20.1050110  29.8884840  57.5264490  20.9525320  30.0957620
  57.2319500  19.4676480  30.0793480  64.4946150  20.1885080  32.9581580
  63.8044470  19.9957280  33.5927670  65.2378450  20.4719720  33.4905880
  55.2218150  18.0278570  23.9214920  54.9331200  18.5981430  24.6339900
  55.9663910  17.5483020  24.2846150  55.4088380  21.9698690  15.1317640
  55.3263050  22.9129450  15.2732630  55.0571440  21.8273600  14.2529990
  66.7709120  24.0283520  25.7935500  66.0390240  24.5370330  26.1425600
  66.3733460  23.2113500  25.4924280  63.2086510  20.7037720  24.1987990
  63.2122570  20.2627670  23.3492530  64.1037630  21.0255050  24.3059810
  59.0588890  20.5864210  23.1582200  58.7188940  21.0639440  23.9149250
  58.2966210  20.1329330  22.7983300  63.2706660  21.7049800  17.1894750
  63.3919480  21.6636280  18.1380570  62.8855170  22.5673950  17.0341480
  67.2335030  19.4817200  25.2058440  67.2507770  19.9325850  26.0500290
  66.9850610  18.5822840  25.4191880  62.2828160  24.0150940  16.5878050
  61.7145060  23.5669190  15.9613960  62.9917160  24.3743720  16.0543200
  70.6605780  16.8949380  31.0444820  70.9851550  16.1639040  31.5702800
  70.6962290  16.5763020  30.1425810  63.5094480  24.7639500  25.9453400
  63.8764610  24.2898070  26.6914740  63.3199540  25.6381070  26.2861740
  56.3734970  19.5083190  22.0746870  56.0881890  19.1438860  22.9125490
  56.3113830  18.7763650  21.4610010  61.2993850  23.8048140  28.2637610
  60.9950920  24.6840120  28.4887970  62.2540310  23.8647930  28.2995050
  59.8275640  28.0109130  18.8604460  59.0537900  27.4706750  18.7003180
  60.5570270  27.4915740  18.5222220  66.0473560  18.4012450  18.7960240
  65.2338170  17.9025620  18.7205550  65.8535510  19.2410700  18.3796590
  65.9682420  27.0783550  30.5399850  65.9019730  26.1579220  30.2857440
  65.3387560  27.1758990  31.2544490  68.7621950  22.7732100  17.0922400
  69.6501570  23.0849330  16.9173740  68.7327040  21.9004350  16.7002980
  59.8713040  27.6789510  22.4983270  60.3891710  26.8757770  22.4440160
  59.4197060  27.6168650  23.3400100  64.7582540  28.9455790  17.7710570
  65.0998240  29.6898020  17.2753890  63.9295250  29.2586910  18.1335400
  60.5570700  25.1035120  32.2948520  60.2570840  25.2492300  31.3976340
  61.3281940  24.5440410  32.2021910  65.8999150  29.9004120  30.2903650
  65.9143690  28.9685080  30.0722560  65.1924250  29.9863880  30.9293420
  67.6409950  28.2671630  23.1356080  67.9933770  27.6699760  22.4757450
  66.7572280  27.9415860  23.3064330  63.7273230  29.0269320  20.5426490
  64.4144360  29.5738530  20.9234080  62.9405650  29.5710050  20.5776100
  55.8665630  24.6442140  16.0343570  56.7360480  24.9266940  16.3179490
  55.3755950  25.4578010  15.9192380  63.0300440  26.0315350  20.1551850
  63.4863220  26.8420600  20.3812040  62.6788650  25.7138490  20.9870340
  65.3333050  31.5421690  27.3844150  65.9775270  31.7481070  28.0617570
  65.6962490  30.7810090  26.9315000  58.9312220  16.3753000  20.6274370
  58.8026850  16.3670900  21.5759290  58.1074240  16.7136090  20.2765380
  66.6065130  29.5454040  26.1021600  67.2487360  28.8447200  26.2153770
  67.1314480  30.3252480  25.9218490  70.4520850  29.8302660  15.8260740
  70.2258430  29.1133100  16.4185380  70.0617050  29.5815100  14.9882490
  68.3802750  30.3448940  29.3057660  68.7158990  30.9315630  29.9835580
  67.4603090  30.2141650  29.5355450  56.2336880  33.8569520  16.6005200
  56.5934520  34.4558860  15.9462470  56.0929220  34.4029410  17.3740230
  55.9306150  18.1344120  30.0881070  55.2164670  18.3341040  30.6933680
  56.3501190  17.3583690  30.4595870  70.0337100  27.7474600  17.4874900
  69.7458800  28.2087290  18.2752780  70.8289270  27.2872370  17.7559120
  64.2091330  30.3940270  32.4745720  63.8888200  29.6749510  33.0191410
  63.5349690  31.0695340  32.5481780  62.2505500  31.2400720  17.4178870
  62.2415600  31.9730410  16.8023380  61.3303860  30.9932300  17.5105830
  57.8512140  26.4615610  18.1625630  57.2440090  27.2014510  18.1720930
  58.3261490  26.5514970  17.3363830  67.4244930  20.6266430  27.8382520
  67.7925750  19.8061640  28.1662090  66.5643130  20.6868320  28.2538170
  70.7906960  19.5823370  18.6470080  70.1620120  19.6869040  17.9328310
  70.2958880  19.8020150  19.4363960  65.2365100  31.3028960  16.0804060
  65.3377080  31.0992950  15.1506040  64.3366840  31.0487240  16.2851840
  62.7590990  21.8609320  20.0627960  62.0507140  22.3295660  20.5041570
  63.0435470  21.2031330  20.6973150  64.3846920  23.2806020  28.0620490
  64.8832170  23.7551840  28.7272340  64.5269870  22.3569540  28.2690520
  66.7906420  18.5859980  21.5023750  66.6674200  18.6046110  20.5533260
  67.7390980  18.6338920  21.6222150  63.8783210  33.8215280  20.7751730
  64.1324710  33.7836670  19.8531100  62.9295690  33.6948610  20.7679980
  60.9626010  20.1694400  17.4378670  61.8116540  20.6064550  17.3718860
  60.5957280  20.4814660  18.2650730  69.8835790  24.7407160  22.3510240
  68.9425930  24.7557390  22.5257930  70.1979860  23.9543120  22.7970540
  59.8617430  26.4226760  15.9114200  60.6280700  26.3108120  16.4739630
  59.9392120  25.7264730  15.2590970  58.5564190  23.8551830  16.5947090
  58.6367780  22.9079340  16.7064490  59.4483940  24.1858710  16.7007750
  58.3637180  33.1893290  32.8867210  59.1649910  33.5105340  33.3002610
  57.8489000  32.8288870  33.6087120  62.4681210  33.1777530  15.5207200
  63.2609820  33.4666360  15.0688990  61.9485560  32.7469700  14.8419680
  67.2001810  29.2973160  32.8342620  66.5939970  29.3204760  32.0938370
  66.8955920  28.5656200  33.3709870  68.6302180  33.0253450  31.4452030
  69.5823930  32.9411470  31.3952270  68.4830400  33.6895160  32.1185820
  62.9858610  28.3980940  15.3849550  62.8809250  27.7833290  16.1110930
  62.8182830  27.8746830  14.6012560  63.1372930  27.0837740  31.3638780
  62.3718600  27.6522740  31.2793450  63.3188890  26.7913950  30.4707010
  66.2261340  27.4600970  15.9891540  65.6771440  27.9070270  16.6334280
  66.8480600  26.9550220  16.5129210  70.2796280  28.8143070  31.9213800
  71.0205750  29.1518830  31.4181260  69.5168960  28.9835130  31.3683570
  58.1158070  23.8196340  32.7253330  58.1563410  23.5210210  33.6338560
  58.9703570  24.2203950  32.5660850  61.8936460  26.4191890  17.8856840
  62.3152880  26.2531760  18.7288230  62.0187300  25.6092120  17.3911980
  60.0563880  22.3988440  30.6927820  59.5260340  21.9079390  30.0651160
  60.7251950  22.8272640  30.1585750  64.4064100  25.4429500  15.1333940
  64.9269760  24.7278520  14.7675090  65.0532500  26.0815370  15.4334450
  68.9541940  26.8657900  30.4569010  69.3682960  27.0202980  31.3059430
  68.0192940  26.9913120  30.6194790  69.4264110  24.2054060  32.4608160
  70.0084880  23.4506380  32.3728640  69.6025880  24.7361500  31.6839640
  60.5436180  19.3650810  30.7725110  60.4493050  18.7471560  30.0475980
  59.9633570  20.0917100  30.5455020  63.3097620  17.9224050  27.8052500
  62.8614920  17.9448310  26.9598050  62.6762820  17.5243070  28.4022800
  63.7157170  26.8178380  28.4264940  64.1345280  27.6611110  28.2541180
  62.7965800  26.9550420  28.1971720  66.0521070  24.5494560  29.8102780
  66.1717280  23.9535700  30.5497620  66.9115070  24.5864250  29.3904080
  68.3908970  25.1031750  28.3865290  67.8644190  25.6274370  27.7830430
  68.7340310  25.7359140  29.0175020  60.7895360  22.4925120  14.8315000
  60.5884420  21.6292480  15.1928340  60.6187410  22.4058480  13.8936600
  61.5664590  33.1231390  29.5422670  61.0285680  33.8477450  29.2231370
  61.8198550  32.6461730  28.7520010  62.8189840  21.0915910  31.0678600
  63.4089530  20.7831760  31.7556420  62.0010080  20.6195660  31.2238500
  67.6383270  20.7081720  31.3011620  66.9498790  20.0463260  31.2361610
  68.3589290  20.2619990  31.7460080  68.2683670  17.3033350  17.3601880
  68.5485960  16.4601250  17.7161300  67.4949400  17.5356460  17.8740630
  59.5878160  19.5925740  14.8192880  59.8904060  19.5993170  13.9112030
  60.3272750  19.2423600  15.3160540  64.4226800  34.3582600  29.8009320
  64.3485500  35.2617740  30.1081690  63.5205640  34.0394500  29.7731390
  62.8063090  18.5360360  15.8049080  62.4585090  17.8584350  15.2251530
  63.0075860  18.0749870  16.6192470  64.9712130  33.5241110  17.4235680
  65.8662920  33.8626080  17.4454440  65.0029760  32.8020520  16.7959960
  58.6108290  28.8968160  15.6522680  59.0483160  29.4397830  16.3080260
  59.0956020  28.0715110  15.6619020  70.6358120  28.7796760  28.2278040
  69.8217960  29.2093920  28.4903830  71.0432320  29.3915170  27.6147090
  69.0959170  19.8589300  16.4231940  69.5144050  19.6720280  15.5828600
  68.7895230  19.0068350  16.7334870  55.3606810  22.2746940  18.1438780
  54.4570890  22.5377140  17.9690440  55.8447430  22.5458110  17.3638740
  57.9034020  21.3312480  16.0533160  58.6125720  20.9095700  15.5680440
  57.1873960  21.3987710  15.4216510  57.5508180  17.3851810  15.0935810
  58.2736310  17.9260750  15.4117030  57.8232700  17.1115230  14.2177350
  57.2400370  16.6358000  24.9958430  57.8876560  16.0855380  24.5553590
  57.6602210  16.8901150  25.8174240  56.9932370  16.7913670  27.7383750
  56.6447190  17.2477490  28.5041930  56.6620070  15.8970800  27.8206180
  62.3002770  31.5192860  27.5046660  62.0594130  31.7867420  26.6177180
  63.2405410  31.6898590  27.5597520  64.5057190  17.9825550  31.2603170
  64.4446080  18.5747380  32.0098580  65.4457570  17.8751510  31.1153430
  67.1431750  17.6395610  30.8995460  67.7572160  17.9574900  30.2376540
  67.6881310  17.1544200  31.5191320  57.6653010  16.3189870  31.0134520
  58.2136000  16.1377920  30.2500630  57.7308320  15.5283980  31.5490830
  67.8839790  16.2027750  27.2264750  67.0099630  16.5362860  27.0237680
  67.7750540  15.7300930  28.0516620  68.7911770  18.4098620  28.6106470
  68.4625130  17.5950380  28.2308200  69.7394070  18.3668430  28.4872160
  58.0697000  30.2753900  27.9742760  57.3431060  29.6559190  27.9068710
  58.1306150  30.6694510  27.1040840  61.6742100  32.4898900  24.7592170
  62.1907120  31.8786260  24.2340430  62.3239480  32.9927680  25.2503180
  64.4137600  33.3807390  25.5861150  64.7015410  33.1261690  24.7094160
  64.9260820  32.8284750  26.1766720  65.6314610  17.1197590  26.1657660
  64.8486400  17.5943090  26.4454420  65.3377540  16.2152420  26.0570840
  70.1835680  17.8220690  24.2106750  70.6243770  17.7665790  23.3628350
  69.9143270  18.7378700  24.2816930  56.9755020  17.4245070  18.6871380
  57.7334380  17.5373950  18.1135410  56.5132190  18.2614270  18.6414810
  63.5168830  19.5384340  21.6773690  62.7043340  19.1641230  21.3369570
  64.0210470  18.7829420  21.9794880  68.0193810  16.2026790  22.9156760
  68.6223180  16.7747000  23.3905280  67.2786800  16.7666230  22.6930660
  59.3480170  17.9509120  17.2273350  59.8772930  17.1638920  17.0981300
  59.9808490  18.6300310  17.4608880  61.5418010  17.6884260  20.2818740
  60.9120750  16.9871570  20.4488870  61.0023150  18.4488390  20.0651900
  64.4809960  34.3023490  32.9529350  65.4077270  34.0667760  32.9965310
  64.4660390  35.1295490  32.4715380  61.6673570  16.9668240  32.7171230
  61.3857840  17.4701840  31.9532050  62.0493270  16.1689990  32.3513360
  60.5582670  34.2343900  17.5038910  61.2901490  33.9503180  16.9562800
  60.8176340  33.9957180  18.3938290  59.7197460  30.3508630  17.5085240
  59.0906340  30.8193730  18.0571070  59.8345290  29.5057850  17.9431430
  68.2689030  16.3821820  33.2951700  68.1554480  16.7016430  34.1903220
  69.0858770  16.7834330  32.9988980  67.1747180  24.4014290   3.6586440
  67.0941230  23.4868900   3.3878150  66.7611600  24.8981360   2.9526150
  65.3065220  26.1793310   5.5395710  64.5307320  25.6993750   5.8294280
  65.9578150  25.4998960   5.3651870  59.3231050  26.4913120   6.4171470
  58.4915930  26.2361830   6.8167980  59.9312030  26.5623890   7.1529390
  69.3272650  30.5853500   4.3194840  68.8654180  29.8140740   4.6482010
  70.1398200  30.6119570   4.8247290  59.3032310  30.5253210   6.6129490
  59.6060350  29.6350950   6.4339710  60.0475900  31.0823430   6.3851740
  55.6956010  24.0520660   6.0853560  56.2672120  23.2842860   6.0857200
  55.6957550  24.3509420   5.1760170  65.5535960  32.8711510   3.9398830
  64.9347400  33.3269010   3.3693270  66.4087740  33.0262970   3.5388530
  64.7474210  28.8550500   5.5465870  64.6782490  27.9140440   5.3855000
  65.5094070  28.9451910   6.1188440  56.9380880  19.4605020   7.8722490
  56.7583720  18.5630770   8.1525250  56.5360960  20.0076890   8.5469440
  65.7779380  21.6620880   5.7734800  66.1544200  20.7892760   5.6608470
  65.6798890  21.9979580   4.8825240  69.5603500  19.1571320   2.7063140
  70.3813120  18.6667890   2.7488620  69.5937580  19.7468980   3.4594980
  57.5567550  21.9565520   6.4804830  58.2377660  22.2203890   7.0992230
  57.2415600  21.1166390   6.8142840  61.7492120  23.0032880   5.5677420
  62.2570340  23.5013850   6.2082440  62.2805360  22.2268080   5.3916780
  60.0328220  17.6431440   9.8340840  60.0346660  18.1603830   9.0286740
  59.2032530  17.1661620   9.8110770  61.2831070  27.2826620   8.0114340
  60.9500450  27.9095540   8.6535410  61.4597750  27.8088500   7.2316010
  69.7964980  21.0971700   5.4790680  69.0920550  21.3856590   6.0593790
  70.1577140  21.9071810   5.1190240  59.7143550  19.3541400   7.8411290
  60.0560360  20.1983450   7.5465160  58.7759360  19.5025140   7.9576630
  60.4950170  29.2507420   9.8263520  61.1124170  29.9258500   9.5447970
  59.6343290  29.6595400   9.7351020  63.3971440  16.8423670   4.1655880
  63.7046420  16.2870560   3.4491380  62.4672140  16.9768130   3.9828870
  68.9486500  32.5590960   6.4563340  68.9613660  32.1553250   5.5885600
  68.3961720  33.3338250   6.3524770  68.3471940  27.4620800   7.7845950
  68.7640730  27.2480910   6.9499410  69.0711760  27.7193590   8.3554570
  69.2576050  22.6477340   8.8217060  68.8447230  23.4731050   9.0757050
  68.5252000  22.0622380   8.6293420  61.3908840  25.4337240   3.6835730
  60.9865840  24.7214490   3.1881630  61.4771960  25.0890480   4.5723770
  61.8590540  29.1204800   5.8474940  61.5618830  28.5150270   5.1682720
  62.8090360  29.1582110   5.7364300  60.1037460  22.2080450   7.4634770
  60.6552050  22.3175790   6.6888020  60.6180970  22.5818050   8.1790000
  69.9476150  32.6936670   9.5098040  69.4706710  33.5008860   9.3170650
  69.2637940  32.0415000   9.6624250  60.9508970  28.8586490  12.4982740
  60.0537500  29.0826460  12.7456140  60.9761840  28.9821430  11.5494140
  59.7780190  25.7299810  11.0740110  59.6387960  26.6022610  11.4427510
  58.8961550  25.3872620  10.9288050  66.1009570  30.6475680   2.3805240
  66.5405480  31.3900010   1.9660630  66.0396460  30.8902250   3.3044200
  61.5760540  31.6721510  13.2825260  61.5475970  32.0764460  12.4153690
  61.4125510  30.7431870  13.1196860  55.7298840  27.4997360   6.9911020
  55.8079260  27.6346130   6.0466740  56.3440520  26.7913250   7.1839140
  56.9746470  29.1997550   3.4017200  56.5674550  29.3412140   2.5470800
  57.8659480  28.9157710   3.1988410  66.7925350  33.3489460  10.3084250
  67.3070020  33.2597470  11.1106680  65.9494430  33.6949160  10.6012160
  68.0355810  32.7695070   2.3714740  68.4912760  31.9884450   2.6853360
  68.3748330  33.4801890   2.9155920  55.7858360  28.5411530   9.5305480
  55.9489400  28.0716890   8.7124850  56.2510810  28.0335090  10.1954320
  60.5577130  17.6717290   4.5666050  60.1145280  18.4526830   4.2350570
  61.1162120  17.9947180   5.2736990  64.8446940  20.5385810  10.1701370
  64.3826310  20.7468830  10.9821310  64.4425050  19.7245160   9.8672040
  69.8451450  21.7594760  11.2998030  68.9945040  21.4600510  11.6207100
  69.6853240  22.0036770  10.3881850  66.9401160  23.2596510  13.3996820
  67.2654570  22.4260260  13.0599050  67.7281490  23.7825030  13.5475150
  62.5953030  18.2164620   6.4255650  62.8925360  19.1227450   6.3447670
  63.1438590  17.7283400   5.8115220  60.3491350  22.7950860   2.2947300
  60.1232270  22.5788030   3.1993920  59.5683880  23.2279320   1.9493270
  62.7890560  23.6936440  12.9607570  62.6934160  22.7531170  12.8107970
  63.6322540  23.9151510  12.5655640  66.1853980  21.4377770   2.9241230
  66.5783550  21.7549970   2.1109920  66.5470830  20.5589650   3.0385750
  57.9201100  20.1050110  11.1141350  57.5264490  20.9525320  11.3214130
  57.2319500  19.4676480  11.3049990  64.4946150  20.1885080  14.1838090
  63.8044470  19.9957280  14.8184180  65.2378450  20.4719720  14.7162390
  55.2218150  18.0278570   5.1471430  54.9331200  18.5981430   5.8596410
  55.9663910  17.5483020   5.5102660  66.7709120  24.0283520   7.0192010
  66.0390240  24.5370330   7.3682110  66.3733460  23.2113500   6.7180790
  63.2086510  20.7037720   5.4244500  63.2122570  20.2627670   4.5749040
  64.1037630  21.0255050   5.5316320  59.0588890  20.5864210   4.3838710
  58.7188940  21.0639440   5.1405760  58.2966210  20.1329330   4.0239810
  67.2335030  19.4817200   6.4314950  67.2507770  19.9325850   7.2756800
  66.9850610  18.5822840   6.6448390  70.6605780  16.8949380  12.2701330
  70.9851550  16.1639040  12.7959310  70.6962290  16.5763020  11.3682320
  57.3597340  27.9162960  11.6901290  56.9752130  27.2756630  12.2884250
  57.6709530  28.6199080  12.2596020  63.5094480  24.7639500   7.1709910
  63.8764610  24.2898070   7.9171250  63.3199540  25.6381070   7.5118250
  56.3734970  19.5083190   3.3003380  56.0881890  19.1438860   4.1382000
  56.3113830  18.7763650   2.6866520  61.2993850  23.8048140   9.4894120
  60.9950920  24.6840120   9.7144480  62.2540310  23.8647930   9.5251560
  65.9682420  27.0783550  11.7656360  65.9019730  26.1579220  11.5113950
  65.3387560  27.1758990  12.4801000  59.8713040  27.6789510   3.7239780
  60.3891710  26.8757770   3.6696670  59.4197060  27.6168650   4.5656610
  57.3557580  24.6450880  10.6365480  56.9972520  25.3104730  11.2238820
  57.0612140  23.8134430  11.0078100  60.5570700  25.1035120  13.5205030
  60.2570840  25.2492300  12.6232850  61.3281940  24.5440410  13.4278420
  65.8999150  29.9004120  11.5160160  65.9143690  28.9685080  11.2979070
  65.1924250  29.9863880  12.1549930  67.6409950  28.2671630   4.3612590
  67.9933770  27.6699760   3.7013960  66.7572280  27.9415860   4.5320840
  63.7273230  29.0269320   1.7683000  64.4144360  29.5738530   2.1490590
  62.9405650  29.5710050   1.8032610  65.3333050  31.5421690   8.6100660
  65.9775270  31.7481070   9.2874080  65.6962490  30.7810090   8.1571510
  66.6065130  29.5454040   7.3278110  67.2487360  28.8447200   7.4410280
  67.1314480  30.3252480   7.1475000  68.3802750  30.3448940  10.5314170
  68.7158990  30.9315630  11.2092090  67.4603090  30.2141650  10.7611960
  55.9306150  18.1344120  11.3137580  55.2164670  18.3341040  11.9190190
  56.3501190  17.3583690  11.6852380  56.2178740  32.1224380  12.3004110
  56.3269860  31.1819120  12.1599500  55.5659300  32.3879130  11.6517840
  64.2091330  30.3940270  13.7002230  63.8888200  29.6749510  14.2447920
  63.5349690  31.0695340  13.7738290  67.4244930  20.6266430   9.0639030
  67.7925750  19.8061640   9.3918600  66.5643130  20.6868320   9.4794680
  64.3846920  23.2806020   9.2877000  64.8832170  23.7551840   9.9528850
  64.5269870  22.3569540   9.4947030  66.7906420  18.5859980   2.7280260
  66.6674200  18.6046110   1.7789770  67.7390980  18.6338920   2.8478660
  69.8835790  24.7407160   3.5766750  68.9425930  24.7557390   3.7514440
  70.1979860  23.9543120   4.0227050  59.3578900  34.0047220   4.9238140
  60.0941380  33.4562680   5.1946710  59.7419820  34.8703230   4.7844130
  58.3637180  33.1893290  14.1123720  59.1649910  33.5105340  14.5259120
  57.8489000  32.8288870  14.8343630  67.2001810  29.2973160  14.0599130
  66.5939970  29.3204760  13.3194880  66.8955920  28.5656200  14.5966380
  68.6302180  33.0253450  12.6708540  69.5823930  32.9411470  12.6208780
  68.4830400  33.6895160  13.3442330  56.0834990  25.6766750  13.0559770
  56.5874010  25.0974030  13.6276000  55.3442410  25.9606980  13.5936140
  63.1372930  27.0837740  12.5895290  62.3718600  27.6522740  12.5049960
  63.3188890  26.7913950  11.6963520  70.2796280  28.8143070  13.1470310
  71.0205750  29.1518830  12.6437770  69.5168960  28.9835130  12.5940080
  58.1158070  23.8196340  13.9509840  58.1563410  23.5210210  14.8595070
  58.9703570  24.2203950  13.7917360  60.0563880  22.3988440  11.9184330
  59.5260340  21.9079390  11.2907670  60.7251950  22.8272640  11.3842260
  68.9541940  26.8657900  11.6825520  69.3682960  27.0202980  12.5315940
  68.0192940  26.9913120  11.8451300  69.4264110  24.2054060  13.6864670
  70.0084880  23.4506380  13.5985150  69.6025880  24.7361500  12.9096150
  60.5436180  19.3650810  11.9981620  60.4493050  18.7471560  11.2732490
  59.9633570  20.0917100  11.7711530  63.3097620  17.9224050   9.0309010
  62.8614920  17.9448310   8.1854560  62.6762820  17.5243070   9.6279310
  63.7157170  26.8178380   9.6521450  64.1345280  27.6611110   9.4797690
  62.7965800  26.9550420   9.4228230  66.0521070  24.5494560  11.0359290
  66.1717280  23.9535700  11.7754130  66.9115070  24.5864250  10.6160590
  68.3908970  25.1031750   9.6121800  67.8644190  25.6274370   9.0086940
  68.7340310  25.7359140  10.2431530  61.5664590  33.1231390  10.7679180
  61.0285680  33.8477450  10.4487880  61.8198550  32.6461730   9.9776520
  62.8189840  21.0915910  12.2935110  63.4089530  20.7831760  12.9812930
  62.0010080  20.6195660  12.4495010  67.6383270  20.7081720  12.5268130
  66.9498790  20.0463260  12.4618120  68.3589290  20.2619990  12.9716590
  64.4226800  34.3582600  11.0265830  64.3485500  35.2617740  11.3338200
  63.5205640  34.0394500  10.9987900  55.8254090  31.6857190   4.3299450
  56.1557100  30.8178250   4.0978090  56.2545090  31.8915710   5.1604410
  56.3144300  32.5527780   7.0681080  55.8775290  32.7328580   7.9005230
  56.8821980  33.3102400   6.9262800  56.1468730  25.0648010   3.4269960
  55.4917570  24.7959650   2.7829660  56.9846680  24.9552490   2.9771940
  70.6358120  28.7796760   9.4534550  69.8217960  29.2093920   9.7160340
  71.0432320  29.3915170   8.8403600  57.1844660  25.4500580   7.9673300
  57.5517700  25.3627980   8.8469320  56.6155480  24.6867130   7.8680160
  56.7360660  22.3609670  11.8731720  55.8416710  22.3276430  12.2125430
  57.2758210  22.5596460  12.6382970  57.2400370  16.6358000   6.2214940
  57.8876560  16.0855380   5.7810100  57.6602210  16.8901150   7.0430750
  56.9932370  16.7913670   8.9640260  56.6447190  17.2477490   9.7298440
  56.6620070  15.8970800   9.0462690  58.5996740  29.9633270  13.1293450
  58.5566370  29.5926180  14.0107910  58.7307750  30.9010840  13.2695270
  62.3002770  31.5192860   8.7303170  62.0594130  31.7867420   7.8433690
  63.2405410  31.6898590   8.7854030  64.5057190  17.9825550  12.4859680
  64.4446080  18.5747380  13.2355090  65.4457570  17.8751510  12.3409940
  67.1431750  17.6395610  12.1251970  67.7572160  17.9574900  11.4633050
  67.6881310  17.1544200  12.7447830  57.6653010  16.3189870  12.2391030
  58.2136000  16.1377920  11.4757140  57.7308320  15.5283980  12.7747340
  58.4384770  32.9095520  10.2491230  57.8445090  32.7780220  10.9881270
  58.4308610  32.0733660   9.7833330  67.8839790  16.2027750   8.4521260
  67.0099630  16.5362860   8.2494190  67.7750540  15.7300930   9.2773130
  68.7911770  18.4098620   9.8362980  68.4625130  17.5950380   9.4564710
  69.7394070  18.3668430   9.7128670  58.0697000  30.2753900   9.1999270
  57.3431060  29.6559190   9.1325220  58.1306150  30.6694510   8.3297350
  61.6742100  32.4898900   5.9848680  62.1907120  31.8786260   5.4596940
  62.3239480  32.9927680   6.4759690  64.4137600  33.3807390   6.8117660
  64.7015410  33.1261690   5.9350670  64.9260820  32.8284750   7.4023230
  65.6314610  17.1197590   7.3914170  64.8486400  17.5943090   7.6710930
  65.3377540  16.2152420   7.2827350  70.1835680  17.8220690   5.4363260
  70.6243770  17.7665790   4.5884860  69.9143270  18.7378700   5.5073440
  56.3527000  33.5928290   2.4096030  56.1849040  32.9598970   3.1077920
  55.4861510  33.7987690   2.0590220  63.5168830  19.5384340   2.9030200
  62.7043340  19.1641230   2.5626080  64.0210470  18.7829420   3.2051390
  68.0193810  16.2026790   4.1413270  68.6223180  16.7747000   4.6161790
  67.2786800  16.7666230   3.9187170  64.4809960  34.3023490  14.1785860
  65.4077270  34.0667760  14.2221820  64.4660390  35.1295490  13.6971890
  61.6673570  16.9668240  13.9427740  61.3857840  17.4701840  13.1788560
  62.0493270  16.1689990  13.5769870  68.2689030  16.3821820  14.5208210
  68.1554480  16.7016430  15.4159730  69.0858770  16.7834330  14.2245490
  67.1747180   5.6270800  78.7560400  67.0941230   4.7125410  78.4852110
  66.7611600   6.1237870  78.0500110  65.3065220   7.4049820  80.6369670
  64.5307320   6.9250260  80.9268240  65.9578150   6.7255470  80.4625830
  59.3231050   7.7169630  81.5145430  58.4915930   7.4618340  81.9141940
  59.9312030   7.7880400  82.2503350  69.3272650  11.8110010  79.4168800
  68.8654180  11.0397250  79.7455970  70.1398200  11.8376080  79.9221250
  59.3032310  11.7509720  81.7103450  59.6060350  10.8607460  81.5313670
  60.0475900  12.3079940  81.4825700  57.7323000   2.6771520  75.2987820
  56.8439700   3.0187490  75.1967700  58.0164190   2.4771840  74.4068650
  55.6956010   5.2777170  81.1827520  56.2672120   4.5099370  81.1831160
  55.6957550   5.5765930  80.2734130  65.5535960  14.0968020  79.0372790
  64.9347400  14.5525520  78.4667230  66.4087740  14.2519480  78.6362490
  64.7474210  10.0807010  80.6439830  64.6782490   9.1396950  80.4828960
  65.5094070  10.1708420  81.2162400  65.7779380   2.8877390  80.8708760
  66.1544200   2.0149270  80.7582430  65.6798890   3.2236090  79.9799200
  57.5567550   3.1822030  81.5778790  58.2377660   3.4460400  82.1966190
  57.2415600   2.3422900  81.9116800  61.7492120   4.2289390  80.6651380
  62.2570340   4.7270360  81.3056400  62.2805360   3.4524590  80.4890740
  66.4199310   8.9807260  76.4304700  65.8016580   9.4456710  75.8667420
  66.9322560   9.6734740  76.8474210  61.2831070   8.5083130  83.1088300
  60.9500450   9.1352050  83.7509370  61.4597750   9.0345010  82.3289970
  69.7964980   2.3228210  80.5764640  69.0920550   2.6113100  81.1567750
  70.1577140   3.1328320  80.2164200  55.7882510   9.6663790  73.8044330
  55.4110490  10.1550890  73.0729230  56.0455580  10.3389070  74.4350860
  68.9486500  13.7847470  81.5537300  68.9613660  13.3809760  80.6859560
  68.3961720  14.5594760  81.4498730  70.2431920  10.5063690  76.6427470
  70.1328250   9.5638020  76.7676890  70.2400170  10.8679330  77.5290230
  68.3471940   8.6877310  82.8819910  68.7640730   8.4737420  82.0473370
  69.0711760   8.9450100  83.4528530  65.7852200   6.1329010  75.9989960
  64.8581480   6.0666390  76.2278430  65.9377020   7.0709140  75.8845200
  65.7721280   2.4046010  72.9957120  64.8324950   2.5659970  73.0809580
  66.0904540   3.1231690  72.4493110  69.8149490   7.6949310  76.5025210
  69.1961910   7.3568860  75.8551510  69.7973940   7.0509070  77.2104400
  61.3908840   6.6593750  78.7809690  60.9865840   5.9471000  78.2855590
  61.4771960   6.3146990  79.6697730  61.8590540  10.3461310  80.9448900
  61.5618830   9.7406780  80.2656680  62.8090360  10.3838620  80.8338260
  60.1037460   3.4336960  82.5608730  60.6552050   3.5432300  81.7861980
  60.6180970   3.8074560  83.2763960  67.9914190   6.9336120  73.5097960
  68.4307470   6.0958550  73.3635780  68.7042610   7.5665520  73.5962100
  66.1009570  11.8732190  77.4779200  66.5405480  12.6156520  77.0634590
  66.0396460  12.1158760  78.4018160  58.0913470   5.5538730  76.2816340
  57.9711070   6.2800820  75.6697610  57.7814360   4.7841640  75.8044250
  55.7298840   8.7253870  82.0884980  55.8079260   8.8602640  81.1440700
  56.3440520   8.0169760  82.2813100  56.9746470  10.4254060  78.4991160
  56.5674550  10.5668650  77.6444760  57.8659480  10.1414220  78.2962370
  68.7679750  14.8601310  74.8342210  68.6080890  14.5704250  75.7324040
  68.6026460  14.0841440  74.2987440  61.2468130  14.6399840  76.6113830
  61.0710610  13.7235380  76.3981630  60.3923870  14.9987130  76.8511630
  68.4705880  12.3688870  73.3940210  67.7771040  12.3666160  72.7342490
  69.2128740  11.9448190  72.9634380  68.0355810  13.9951580  77.4688700
  68.4912760  13.2140960  77.7827320  68.3748330  14.7058400  78.0129880
  60.3491350   4.0207370  77.3921260  60.1232270   3.8044540  78.2967880
  59.5683880   4.4535830  77.0467230  67.5789110   4.0270740  75.9911910
  66.9798000   4.7506540  75.8075530  68.1268720   3.9647520  75.2088360
  66.1853980   2.6634280  78.0215190  66.5783550   2.9806480  77.2083880
  66.5470830   1.7846160  78.1359710  55.4088380   3.1955200  71.4548110
  55.3263050   4.1385960  71.5963100  55.0571440   3.0530110  70.5760460
  66.7709120   5.2540030  82.1165970  66.0390240   5.7626840  82.4656070
  66.3733460   4.4370010  81.8154750  63.2086510   1.9294230  80.5218460
  63.2122570   1.4884180  79.6723000  64.1037630   2.2511560  80.6290280
  63.2706660   2.9306310  73.5125220  63.3919480   2.8892790  74.4611040
  62.8855170   3.7930460  73.3571950  62.2828160   5.2407450  72.9108520
  61.7145060   4.7925700  72.2844430  62.9917160   5.6000230  72.3773670
  63.5094480   5.9896010  82.2683870  63.8764610   5.5154580  83.0145210
  63.3199540   6.8637580  82.6092210  59.8275640   9.2365640  75.1834930
  59.0537900   8.6963260  75.0233650  60.5570270   8.7172250  74.8452690
  68.7621950   3.9988610  73.4152870  69.6501570   4.3105840  73.2404210
  68.7327040   3.1260860  73.0233450  59.8713040   8.9046020  78.8213740
  60.3891710   8.1014280  78.7670630  59.4197060   8.8425160  79.6630570
  64.7582540  10.1712300  74.0941040  65.0998240  10.9154530  73.5984360
  63.9295250  10.4843420  74.4565870  67.6409950   9.4928140  79.4586550
  67.9933770   8.8956270  78.7987920  66.7572280   9.1672370  79.6294800
  63.7273230  10.2525830  76.8656960  64.4144360  10.7995040  77.2464550
  62.9405650  10.7966560  76.9006570  55.8665630   5.8698650  72.3574040
  56.7360480   6.1523450  72.6409960  55.3755950   6.6834520  72.2422850
  63.0300440   7.2571860  76.4782320  63.4863220   8.0677110  76.7042510
  62.6788650   6.9395000  77.3100810  66.6065130  10.7710550  82.4252070
  67.2487360  10.0703710  82.5384240  67.1314480  11.5508990  82.2448960
  70.4520850  11.0559170  72.1491210  70.2258430  10.3389610  72.7415850
  70.0617050  10.8071610  71.3112960  56.2336880  15.0826030  72.9235670
  56.5934520  15.6815370  72.2692940  56.0929220  15.6285920  73.6970700
  70.0337100   8.9731110  73.8105370  69.7458800   9.4343800  74.5983250
  70.8289270   8.5128880  74.0789590  62.2505500  12.4657230  73.7409340
  62.2415600  13.1986920  73.1253850  61.3303860  12.2188810  73.8336300
  57.8512140   7.6872120  74.4856100  57.2440090   8.4271020  74.4951400
  58.3261490   7.7771480  73.6594300  65.2365100  12.5285470  72.4034530
  65.3377080  12.3249460  71.4736510  64.3366840  12.2743750  72.6082310
  62.7590990   3.0865830  76.3858430  62.0507140   3.5552170  76.8272040
  63.0435470   2.4287840  77.0203620  63.8783210  15.0471790  77.0982200
  64.1324710  15.0093180  76.1761570  62.9295690  14.9205120  77.0910450
  69.8835790   5.9663670  78.6740710  68.9425930   5.9813900  78.8488400
  70.1979860   5.1799630  79.1201010  59.8617430   7.6483270  72.2344670
  60.6280700   7.5364630  72.7970100  59.9392120   6.9521240  71.5821440
  58.5564190   5.0808340  72.9177560  58.6367780   4.1335850  73.0294960
  59.4483940   5.4115220  73.0238220  59.3578900  15.2303730  80.0212100
  60.0941380  14.6819190  80.2920670  59.7419820  16.0959740  79.8818090
  56.2424380  11.2977300  75.8953610  55.3164160  11.5398440  75.8859020
  56.7080810  12.1251560  75.7738360  62.4681210  14.4034040  71.8437670
  63.2609820  14.6922870  71.3919460  61.9485560  13.9726210  71.1650150
  62.9858610   9.6237450  71.7080020  62.8809250   9.0089800  72.4341400
  62.8182830   9.1003340  70.9243030  66.2261340   8.6857480  72.3122010
  65.6771440   9.1326780  72.9564750  66.8480600   8.1806730  72.8359680
  61.8936460   7.6448400  74.2087310  62.3152880   7.4788270  75.0518700
  62.0187300   6.8348630  73.7142450  64.4064100   6.6686010  71.4564410
  64.9269760   5.9535030  71.0905560  65.0532500   7.3071880  71.7564920
  60.7895360   3.7181630  71.1545470  60.5884420   2.8548990  71.5158810
  60.6187410   3.6314990  70.2167070  64.9712130  14.7497620  73.7466150
  65.8662920  15.0882590  73.7684910  65.0029760  14.0277030  73.1190430
  58.6108290  10.1224670  71.9753150  59.0483160  10.6654340  72.6310730
  59.0956020   9.2971620  71.9849490  55.8254090  12.9113700  79.4273410
  56.1557100  12.0434760  79.1952050  56.2545090  13.1172220  80.2578370
  60.4216010  11.2422710  77.0875380  60.1211550  11.1187680  77.9879290
  60.3153500  10.3831300  76.6791110  56.3144300  13.7784290  82.1655040
  55.8775290  13.9585090  82.9979190  56.8821980  14.5358910  82.0236760
  56.1468730   6.2904520  78.5243920  55.4917570   6.0216160  77.8803620
  56.9846680   6.1809000  78.0745900  55.3606810   3.5003450  74.4669250
  54.4570890   3.7633650  74.2920910  55.8447430   3.7714620  73.6869210
  57.9034020   2.5568990  72.3763630  58.6125720   2.1352210  71.8910910
  57.1873960   2.6244220  71.7446980  61.6742100  13.7155410  81.0822640
  62.1907120  13.1042770  80.5570900  62.3239480  14.2184190  81.5733650
  64.4137600  14.6063900  81.9091620  64.7015410  14.3518200  81.0324630
  64.9260820  14.0541260  82.4997190  56.3527000  14.8184800  77.5069990
  56.1849040  14.1855480  78.2051880  55.4861510  15.0244200  77.1564180
  57.9589700  13.5118030  74.9520130  57.4337320  13.8926060  74.2482090
  57.8834280  14.1368800  75.6729840  60.5582670  15.4600410  73.8269380
  61.2901490  15.1759690  73.2793270  60.8176340  15.2213690  74.7168760
  59.7197460  11.5765140  73.8315710  59.0906340  12.0450240  74.3801540
  59.8345290  10.7314360  74.2661900  67.1747180   5.6270800  59.9816910
  67.0941230   4.7125410  59.7108620  66.7611600   6.1237870  59.2756620
  65.3065220   7.4049820  61.8626180  64.5307320   6.9250260  62.1524750
  65.9578150   6.7255470  61.6882340  59.3231050   7.7169630  62.7401940
  58.4915930   7.4618340  63.1398450  59.9312030   7.7880400  63.4759860
  69.3272650  11.8110010  60.6425310  68.8654180  11.0397250  60.9712480
  70.1398200  11.8376080  61.1477760  59.3032310  11.7509720  62.9359960
  59.6060350  10.8607460  62.7570180  60.0475900  12.3079940  62.7082210
  57.7323000   2.6771520  56.5244330  56.8439700   3.0187490  56.4224210
  58.0164190   2.4771840  55.6325160  55.6956010   5.2777170  62.4084030
  56.2672120   4.5099370  62.4087670  55.6957550   5.5765930  61.4990640
  65.5535960  14.0968020  60.2629300  64.9347400  14.5525520  59.6923740
  66.4087740  14.2519480  59.8619000  64.7474210  10.0807010  61.8696340
  64.6782490   9.1396950  61.7085470  65.5094070  10.1708420  62.4418910
  65.7779380   2.8877390  62.0965270  66.1544200   2.0149270  61.9838940
  65.6798890   3.2236090  61.2055710  57.5567550   3.1822030  62.8035300
  58.2377660   3.4460400  63.4222700  57.2415600   2.3422900  63.1373310
  61.7492120   4.2289390  61.8907890  62.2570340   4.7270360  62.5312910
  62.2805360   3.4524590  61.7147250  66.4199310   8.9807260  57.6561210
  65.8016580   9.4456710  57.0923930  66.9322560   9.6734740  58.0730720
  61.2831070   8.5083130  64.3344810  60.9500450   9.1352050  64.9765880
  61.4597750   9.0345010  63.5546480  69.7964980   2.3228210  61.8021150
  69.0920550   2.6113100  62.3824260  70.1577140   3.1328320  61.4420710
  60.4950170  10.4763930  66.1493990  61.1124170  11.1515010  65.8678440
  59.6343290  10.8851910  66.0581490  55.7882510   9.6663790  55.0300840
  55.4110490  10.1550890  54.2985740  56.0455580  10.3389070  55.6607370
  68.9486500  13.7847470  62.7793810  68.9613660  13.3809760  61.9116070
  68.3961720  14.5594760  62.6755240  70.2431920  10.5063690  57.8683980
  70.1328250   9.5638020  57.9933400  70.2400170  10.8679330  58.7546740
  68.3471940   8.6877310  64.1076420  68.7640730   8.4737420  63.2729880
  69.0711760   8.9450100  64.6785040  65.7852200   6.1329010  57.2246470
  64.8581480   6.0666390  57.4534940  65.9377020   7.0709140  57.1101710
  65.7721280   2.4046010  54.2213630  64.8324950   2.5659970  54.3066090
  66.0904540   3.1231690  53.6749620  69.8149490   7.6949310  57.7281720
  69.1961910   7.3568860  57.0808020  69.7973940   7.0509070  58.4360910
  69.2576050   3.8733850  65.1447530  68.8447230   4.6987560  65.3987520
  68.5252000   3.2878890  64.9523890  61.3908840   6.6593750  60.0066200
  60.9865840   5.9471000  59.5112100  61.4771960   6.3146990  60.8954240
  61.8590540  10.3461310  62.1705410  61.5618830   9.7406780  61.4913190
  62.8090360  10.3838620  62.0594770  60.1037460   3.4336960  63.7865240
  60.6552050   3.5432300  63.0118490  60.6180970   3.8074560  64.5020470
  69.9476150  13.9193180  65.8328510  69.4706710  14.7265370  65.6401120
  69.2637940  13.2671510  65.9854720  60.9508970  10.0843000  68.8213210
  60.0537500  10.3082970  69.0686610  60.9761840  10.2077940  67.8724610
  67.9914190   6.9336120  54.7354470  68.4307470   6.0958550  54.5892290
  68.7042610   7.5665520  54.8218610  59.7780190   6.9556320  67.3970580
  59.6387960   7.8279120  67.7657980  58.8961550   6.6129130  67.2518520
  66.1009570  11.8732190  58.7035710  66.5405480  12.6156520  58.2891100
  66.0396460  12.1158760  59.6274670  61.5760540  12.8978020  69.6055730
  61.5475970  13.3020970  68.7384160  61.4125510  11.9688380  69.4427330
  58.0913470   5.5538730  57.5072850  57.9711070   6.2800820  56.8954120
  57.7814360   4.7841640  57.0300760  55.7298840   8.7253870  63.3141490
  55.8079260   8.8602640  62.3697210  56.3440520   8.0169760  63.5069610
  56.9746470  10.4254060  59.7247670  56.5674550  10.5668650  58.8701270
  57.8659480  10.1414220  59.5218880  66.7925350  14.5745970  66.6314720
  67.3070020  14.4853980  67.4337150  65.9494430  14.9205670  66.9242630
  68.7679750  14.8601310  56.0598720  68.6080890  14.5704250  56.9580550
  68.6026460  14.0841440  55.5243950  61.2468130  14.6399840  57.8370340
  61.0710610  13.7235380  57.6238140  60.3923870  14.9987130  58.0768140
  68.4705880  12.3688870  54.6196720  67.7771040  12.3666160  53.9599000
  69.2128740  11.9448190  54.1890890  68.0355810  13.9951580  58.6945210
  68.4912760  13.2140960  59.0083830  68.3748330  14.7058400  59.2386390
  55.7858360   9.7668040  65.8535950  55.9489400   9.2973400  65.0355320
  56.2510810   9.2591600  66.5184790  69.8451450   2.9851270  67.6228500
  68.9945040   2.6857020  67.9437570  69.6853240   3.2293280  66.7112320
  66.9401160   4.4853020  69.7227290  67.2654570   3.6516770  69.3829520
  67.7281490   5.0081540  69.8705620  60.3491350   4.0207370  58.6177770
  60.1232270   3.8044540  59.5224390  59.5683880   4.4535830  58.2723740
  67.5789110   4.0270740  57.2168420  66.9798000   4.7506540  57.0332040
  68.1268720   3.9647520  56.4344870  62.7890560   4.9192950  69.2838040
  62.6934160   3.9787680  69.1338440  63.6322540   5.1408020  68.8886110
  66.1853980   2.6634280  59.2471700  66.5783550   2.9806480  58.4340390
  66.5470830   1.7846160  59.3616220  55.4088380   3.1955200  52.6804620
  55.3263050   4.1385960  52.8219610  55.0571440   3.0530110  51.8016970
  66.7709120   5.2540030  63.3422480  66.0390240   5.7626840  63.6912580
  66.3733460   4.4370010  63.0411260  63.2086510   1.9294230  61.7474970
  63.2122570   1.4884180  60.8979510  64.1037630   2.2511560  61.8546790
  63.2706660   2.9306310  54.7381730  63.3919480   2.8892790  55.6867550
  62.8855170   3.7930460  54.5828460  62.2828160   5.2407450  54.1365030
  61.7145060   4.7925700  53.5100940  62.9917160   5.6000230  53.6030180
  57.3597340   9.1419470  68.0131760  56.9752130   8.5013140  68.6114720
  57.6709530   9.8455590  68.5826490  63.5094480   5.9896010  63.4940380
  63.8764610   5.5154580  64.2401720  63.3199540   6.8637580  63.8348720
  61.2993850   5.0304650  65.8124590  60.9950920   5.9096630  66.0374950
  62.2540310   5.0904440  65.8482030  59.8275640   9.2365640  56.4091440
  59.0537900   8.6963260  56.2490160  60.5570270   8.7172250  56.0709200
  65.9682420   8.3040060  68.0886830  65.9019730   7.3835730  67.8344420
  65.3387560   8.4015500  68.8031470  68.7621950   3.9988610  54.6409380
  69.6501570   4.3105840  54.4660720  68.7327040   3.1260860  54.2489960
  59.8713040   8.9046020  60.0470250  60.3891710   8.1014280  59.9927140
  59.4197060   8.8425160  60.8887080  64.7582540  10.1712300  55.3197550
  65.0998240  10.9154530  54.8240870  63.9295250  10.4843420  55.6822380
  57.3557580   5.8707390  66.9595950  56.9972520   6.5361240  67.5469290
  57.0612140   5.0390940  67.3308570  60.5570700   6.3291630  69.8435500
  60.2570840   6.4748810  68.9463320  61.3281940   5.7696920  69.7508890
  65.8999150  11.1260630  67.8390630  65.9143690  10.1941590  67.6209540
  65.1924250  11.2120390  68.4780400  67.6409950   9.4928140  60.6843060
  67.9933770   8.8956270  60.0244430  66.7572280   9.1672370  60.8551310
  63.7273230  10.2525830  58.0913470  64.4144360  10.7995040  58.4721060
  62.9405650  10.7966560  58.1263080  55.8665630   5.8698650  53.5830550
  56.7360480   6.1523450  53.8666470  55.3755950   6.6834520  53.4679360
  63.0300440   7.2571860  57.7038830  63.4863220   8.0677110  57.9299020
  62.6788650   6.9395000  58.5357320  65.3333050  12.7678200  64.9331130
  65.9775270  12.9737580  65.6104550  65.6962490  12.0066600  64.4801980
  66.6065130  10.7710550  63.6508580  67.2487360  10.0703710  63.7640750
  67.1314480  11.5508990  63.4705470  70.4520850  11.0559170  53.3747720
  70.2258430  10.3389610  53.9672360  70.0617050  10.8071610  52.5369470
  68.3802750  11.5705450  66.8544640  68.7158990  12.1572140  67.5322560
  67.4603090  11.4398160  67.0842430  56.2336880  15.0826030  54.1492180
  56.5934520  15.6815370  53.4949450  56.0929220  15.6285920  54.9227210
  70.0337100   8.9731110  55.0361880  69.7458800   9.4343800  55.8239760
  70.8289270   8.5128880  55.3046100  56.2178740  13.3480890  68.6234580
  56.3269860  12.4075630  68.4829970  55.5659300  13.6135640  67.9748310
  64.2091330  11.6196780  70.0232700  63.8888200  10.9006020  70.5678390
  63.5349690  12.2951850  70.0968760  62.2505500  12.4657230  54.9665850
  62.2415600  13.1986920  54.3510360  61.3303860  12.2188810  55.0592810
  57.8512140   7.6872120  55.7112610  57.2440090   8.4271020  55.7207910
  58.3261490   7.7771480  54.8850810  65.2365100  12.5285470  53.6291040
  65.3377080  12.3249460  52.6993020  64.3366840  12.2743750  53.8338820
  62.7590990   3.0865830  57.6114940  62.0507140   3.5552170  58.0528550
  63.0435470   2.4287840  58.2460130  64.3846920   4.5062530  65.6107470
  64.8832170   4.9808350  66.2759320  64.5269870   3.5826050  65.8177500
  63.8783210  15.0471790  58.3238710  64.1324710  15.0093180  57.4018080
  62.9295690  14.9205120  58.3166960  69.8835790   5.9663670  59.8997220
  68.9425930   5.9813900  60.0744910  70.1979860   5.1799630  60.3457520
  59.8617430   7.6483270  53.4601180  60.6280700   7.5364630  54.0226610
  59.9392120   6.9521240  52.8077950  58.5564190   5.0808340  54.1434070
  58.6367780   4.1335850  54.2551470  59.4483940   5.4115220  54.2494730
  59.3578900  15.2303730  61.2468610  60.0941380  14.6819190  61.5177180
  59.7419820  16.0959740  61.1074600  56.2424380  11.2977300  57.1210120
  55.3164160  11.5398440  57.1115530  56.7080810  12.1251560  56.9994870
  58.3637180  14.4149800  70.4354190  59.1649910  14.7361850  70.8489590
  57.8489000  14.0545380  71.1574100  62.4681210  14.4034040  53.0694180
  63.2609820  14.6922870  52.6175970  61.9485560  13.9726210  52.3906660
  67.2001810  10.5229670  70.3829600  66.5939970  10.5461270  69.6425350
  66.8955920   9.7912710  70.9196850  68.6302180  14.2509960  68.9939010
  69.5823930  14.1667980  68.9439250  68.4830400  14.9151670  69.6672800
  56.0834990   6.9023260  69.3790240  56.5874010   6.3230540  69.9506470
  55.3442410   7.1863490  69.9166610  62.9858610   9.6237450  52.9336530
  62.8809250   9.0089800  53.6597910  62.8182830   9.1003340  52.1499540
  63.1372930   8.3094250  68.9125760  62.3718600   8.8779250  68.8280430
  63.3188890   8.0170460  68.0193990  66.2261340   8.6857480  53.5378520
  65.6771440   9.1326780  54.1821260  66.8480600   8.1806730  54.0616190
  70.2796280  10.0399580  69.4700780  71.0205750  10.3775340  68.9668240
  69.5168960  10.2091640  68.9170550  58.1158070   5.0452850  70.2740310
  58.1563410   4.7466720  71.1825540  58.9703570   5.4460460  70.1147830
  61.8936460   7.6448400  55.4343820  62.3152880   7.4788270  56.2775210
  62.0187300   6.8348630  54.9398960  60.0563880   3.6244950  68.2414800
  59.5260340   3.1335900  67.6138140  60.7251950   4.0529150  67.7072730
  64.4064100   6.6686010  52.6820920  64.9269760   5.9535030  52.3162070
  65.0532500   7.3071880  52.9821430  68.9541940   8.0914410  68.0055990
  69.3682960   8.2459490  68.8546410  68.0192940   8.2169630  68.1681770
  69.4264110   5.4310570  70.0095140  70.0084880   4.6762890  69.9215620
  69.6025880   5.9618010  69.2326620  63.7157170   8.0434890  65.9751920
  64.1345280   8.8867620  65.8028160  62.7965800   8.1806930  65.7458700
  66.0521070   5.7751070  67.3589760  66.1717280   5.1792210  68.0984600
  66.9115070   5.8120760  66.9391060  68.3908970   6.3288260  65.9352270
  67.8644190   6.8530880  65.3317410  68.7340310   6.9615650  66.5662000
  60.7895360   3.7181630  52.3801980  60.5884420   2.8548990  52.7415320
  60.6187410   3.6314990  51.4423580  61.5664590  14.3487900  67.0909650
  61.0285680  15.0733960  66.7718350  61.8198550  13.8718240  66.3006990
  62.8189840   2.3172420  68.6165580  63.4089530   2.0088270  69.3043400
  62.0010080   1.8452170  68.7725480  64.4226800  15.5839110  67.3496300
  64.3485500  16.4874250  67.6568670  63.5205640  15.2651010  67.3218370
  64.9712130  14.7497620  54.9722660  65.8662920  15.0882590  54.9941420
  65.0029760  14.0277030  54.3446940  58.6108290  10.1224670  53.2009660
  59.0483160  10.6654340  53.8567240  59.0956020   9.2971620  53.2106000
  55.8254090  12.9113700  60.6529920  56.1557100  12.0434760  60.4208560
  56.2545090  13.1172220  61.4834880  60.4216010  11.2422710  58.3131890
  60.1211550  11.1187680  59.2135800  60.3153500  10.3831300  57.9047620
  56.3144300  13.7784290  63.3911550  55.8775290  13.9585090  64.2235700
  56.8821980  14.5358910  63.2493270  56.1468730   6.2904520  59.7500430
  55.4917570   6.0216160  59.1060130  56.9846680   6.1809000  59.3002410
  70.6358120  10.0053270  65.7765020  69.8217960  10.4350430  66.0390810
  71.0432320  10.6171680  65.1634070  57.1844660   6.6757090  64.2903770
  57.5517700   6.5884490  65.1699790  56.6155480   5.9123640  64.1910630
  56.7360660   3.5866180  68.1962190  55.8416710   3.5532940  68.5355900
  57.2758210   3.7852970  68.9613440  55.3606810   3.5003450  55.6925760
  54.4570890   3.7633650  55.5177420  55.8447430   3.7714620  54.9125720
  57.9034020   2.5568990  53.6020140  58.6125720   2.1352210  53.1167420
  57.1873960   2.6244220  52.9703490  58.5996740  11.1889780  69.4523920
  58.5566370  10.8182690  70.3338380  58.7307750  12.1267350  69.5925740
  62.3002770  12.7449370  65.0533640  62.0594130  13.0123930  64.1664160
  63.2405410  12.9155100  65.1084500  58.4384770  14.1352030  66.5721700
  57.8445090  14.0036730  67.3111740  58.4308610  13.2990170  66.1063800
  58.0697000  11.5010410  65.5229740  57.3431060  10.8815700  65.4555690
  58.1306150  11.8951020  64.6527820  61.6742100  13.7155410  62.3079150
  62.1907120  13.1042770  61.7827410  62.3239480  14.2184190  62.7990160
  64.4137600  14.6063900  63.1348130  64.7015410  14.3518200  62.2581140
  64.9260820  14.0541260  63.7253700  56.3527000  14.8184800  58.7326500
  56.1849040  14.1855480  59.4308390  55.4861510  15.0244200  58.3820690
  57.9589700  13.5118030  56.1776640  57.4337320  13.8926060  55.4738600
  57.8834280  14.1368800  56.8986350  64.4809960  15.5280000  70.5016330
  65.4077270  15.2924270  70.5452290  64.4660390  16.3552000  70.0202360
  60.5582670  15.4600410  55.0525890  61.2901490  15.1759690  54.5049780
  60.8176340  15.2213690  55.9425270  59.7197460  11.5765140  55.0572220
  59.0906340  12.0450240  55.6058050  59.8345290  10.7314360  55.4918410
  67.1747180   5.6270800  41.2073420  67.0941230   4.7125410  40.9365130
  66.7611600   6.1237870  40.5013130  65.3065220   7.4049820  43.0882690
  64.5307320   6.9250260  43.3781260  65.9578150   6.7255470  42.9138850
  59.3231050   7.7169630  43.9658450  58.4915930   7.4618340  44.3654960
  59.9312030   7.7880400  44.7016370  69.3272650  11.8110010  41.8681820
  68.8654180  11.0397250  42.1968990  70.1398200  11.8376080  42.3734270
  59.3032310  11.7509720  44.1616470  59.6060350  10.8607460  43.9826690
  60.0475900  12.3079940  43.9338720  57.7323000   2.6771520  37.7500840
  56.8439700   3.0187490  37.6480720  58.0164190   2.4771840  36.8581670
  55.6956010   5.2777170  43.6340540  56.2672120   4.5099370  43.6344180
  55.6957550   5.5765930  42.7247150  65.5535960  14.0968020  41.4885810
  64.9347400  14.5525520  40.9180250  66.4087740  14.2519480  41.0875510
  64.7474210  10.0807010  43.0952850  64.6782490   9.1396950  42.9341980
  65.5094070  10.1708420  43.6675420  65.7779380   2.8877390  43.3221780
  66.1544200   2.0149270  43.2095450  65.6798890   3.2236090  42.4312220
  57.5567550   3.1822030  44.0291810  58.2377660   3.4460400  44.6479210
  57.2415600   2.3422900  44.3629820  61.7492120   4.2289390  43.1164400
  62.2570340   4.7270360  43.7569420  62.2805360   3.4524590  42.9403760
  66.4199310   8.9807260  38.8817720  65.8016580   9.4456710  38.3180440
  66.9322560   9.6734740  39.2987230  61.2831070   8.5083130  45.5601320
  60.9500450   9.1352050  46.2022390  61.4597750   9.0345010  44.7802990
  69.7964980   2.3228210  43.0277660  69.0920550   2.6113100  43.6080770
  70.1577140   3.1328320  42.6677220  60.4950170  10.4763930  47.3750500
  61.1124170  11.1515010  47.0934950  59.6343290  10.8851910  47.2838000
  55.7882510   9.6663790  36.2557350  55.4110490  10.1550890  35.5242250
  56.0455580  10.3389070  36.8863880  68.9486500  13.7847470  44.0050320
  68.9613660  13.3809760  43.1372580  68.3961720  14.5594760  43.9011750
  70.2431920  10.5063690  39.0940490  70.1328250   9.5638020  39.2189910
  70.2400170  10.8679330  39.9803250  68.3471940   8.6877310  45.3332930
  68.7640730   8.4737420  44.4986390  69.0711760   8.9450100  45.9041550
  65.7852200   6.1329010  38.4502980  64.8581480   6.0666390  38.6791450
  65.9377020   7.0709140  38.3358220  65.7721280   2.4046010  35.4470140
  64.8324950   2.5659970  35.5322600  66.0904540   3.1231690  34.9006130
  69.8149490   7.6949310  38.9538230  69.1961910   7.3568860  38.3064530
  69.7973940   7.0509070  39.6617420  69.2576050   3.8733850  46.3704040
  68.8447230   4.6987560  46.6244030  68.5252000   3.2878890  46.1780400
  61.3908840   6.6593750  41.2322710  60.9865840   5.9471000  40.7368610
  61.4771960   6.3146990  42.1210750  61.8590540  10.3461310  43.3961920
  61.5618830   9.7406780  42.7169700  62.8090360  10.3838620  43.2851280
  60.1037460   3.4336960  45.0121750  60.6552050   3.5432300  44.2375000
  60.6180970   3.8074560  45.7276980  69.9476150  13.9193180  47.0585020
  69.4706710  14.7265370  46.8657630  69.2637940  13.2671510  47.2111230
  60.9508970  10.0843000  50.0469720  60.0537500  10.3082970  50.2943120
  60.9761840  10.2077940  49.0981120  67.9914190   6.9336120  35.9610980
  68.4307470   6.0958550  35.8148800  68.7042610   7.5665520  36.0475120
  59.7780190   6.9556320  48.6227090  59.6387960   7.8279120  48.9914490
  58.8961550   6.6129130  48.4775030  66.1009570  11.8732190  39.9292220
  66.5405480  12.6156520  39.5147610  66.0396460  12.1158760  40.8531180
  61.5760540  12.8978020  50.8312240  61.5475970  13.3020970  49.9640670
  61.4125510  11.9688380  50.6683840  58.0913470   5.5538730  38.7329360
  57.9711070   6.2800820  38.1210630  57.7814360   4.7841640  38.2557270
  55.7298840   8.7253870  44.5398000  55.8079260   8.8602640  43.5953720
  56.3440520   8.0169760  44.7326120  56.9746470  10.4254060  40.9504180
  56.5674550  10.5668650  40.0957780  57.8659480  10.1414220  40.7475390
  66.7925350  14.5745970  47.8571230  67.3070020  14.4853980  48.6593660
  65.9494430  14.9205670  48.1499140  68.7679750  14.8601310  37.2855230
  68.6080890  14.5704250  38.1837060  68.6026460  14.0841440  36.7500460
  61.2468130  14.6399840  39.0626850  61.0710610  13.7235380  38.8494650
  60.3923870  14.9987130  39.3024650  68.4705880  12.3688870  35.8453230
  67.7771040  12.3666160  35.1855510  69.2128740  11.9448190  35.4147400
  68.0355810  13.9951580  39.9201720  68.4912760  13.2140960  40.2340340
  68.3748330  14.7058400  40.4642900  55.7858360   9.7668040  47.0792460
  55.9489400   9.2973400  46.2611830  56.2510810   9.2591600  47.7441300
  69.8451450   2.9851270  48.8485010  68.9945040   2.6857020  49.1694080
  69.6853240   3.2293280  47.9368830  66.9401160   4.4853020  50.9483800
  67.2654570   3.6516770  50.6086030  67.7281490   5.0081540  51.0962130
  60.3491350   4.0207370  39.8434280  60.1232270   3.8044540  40.7480900
  59.5683880   4.4535830  39.4980250  67.5789110   4.0270740  38.4424930
  66.9798000   4.7506540  38.2588550  68.1268720   3.9647520  37.6601380
  62.7890560   4.9192950  50.5094550  62.6934160   3.9787680  50.3594950
  63.6322540   5.1408020  50.1142620  66.1853980   2.6634280  40.4728210
  66.5783550   2.9806480  39.6596900  66.5470830   1.7846160  40.5872730
  55.4088380   3.1955200  33.9061130  55.3263050   4.1385960  34.0476120
  55.0571440   3.0530110  33.0273480  66.7709120   5.2540030  44.5678990
  66.0390240   5.7626840  44.9169090  66.3733460   4.4370010  44.2667770
  63.2086510   1.9294230  42.9731480  63.2122570   1.4884180  42.1236020
  64.1037630   2.2511560  43.0803300  63.2706660   2.9306310  35.9638240
  63.3919480   2.8892790  36.9124060  62.8855170   3.7930460  35.8084970
  62.2828160   5.2407450  35.3621540  61.7145060   4.7925700  34.7357450
  62.9917160   5.6000230  34.8286690  57.3597340   9.1419470  49.2388270
  56.9752130   8.5013140  49.8371230  57.6709530   9.8455590  49.8083000
  63.5094480   5.9896010  44.7196890  63.8764610   5.5154580  45.4658230
  63.3199540   6.8637580  45.0605230  61.2993850   5.0304650  47.0381100
  60.9950920   5.9096630  47.2631460  62.2540310   5.0904440  47.0738540
  59.8275640   9.2365640  37.6347950  59.0537900   8.6963260  37.4746670
  60.5570270   8.7172250  37.2965710  65.9682420   8.3040060  49.3143340
  65.9019730   7.3835730  49.0600930  65.3387560   8.4015500  50.0287980
  68.7621950   3.9988610  35.8665890  69.6501570   4.3105840  35.6917230
  68.7327040   3.1260860  35.4746470  59.8713040   8.9046020  41.2726760
  60.3891710   8.1014280  41.2183650  59.4197060   8.8425160  42.1143590
  64.7582540  10.1712300  36.5454060  65.0998240  10.9154530  36.0497380
  63.9295250  10.4843420  36.9078890  57.3557580   5.8707390  48.1852460
  56.9972520   6.5361240  48.7725800  57.0612140   5.0390940  48.5565080
  60.5570700   6.3291630  51.0692010  60.2570840   6.4748810  50.1719830
  61.3281940   5.7696920  50.9765400  65.8999150  11.1260630  49.0647140
  65.9143690  10.1941590  48.8466050  65.1924250  11.2120390  49.7036910
  67.6409950   9.4928140  41.9099570  67.9933770   8.8956270  41.2500940
  66.7572280   9.1672370  42.0807820  63.7273230  10.2525830  39.3169980
  64.4144360  10.7995040  39.6977570  62.9405650  10.7966560  39.3519590
  55.8665630   5.8698650  34.8087060  56.7360480   6.1523450  35.0922980
  55.3755950   6.6834520  34.6935870  63.0300440   7.2571860  38.9295340
  63.4863220   8.0677110  39.1555530  62.6788650   6.9395000  39.7613830
  65.3333050  12.7678200  46.1587640  65.9775270  12.9737580  46.8361060
  65.6962490  12.0066600  45.7058490  66.6065130  10.7710550  44.8765090
  67.2487360  10.0703710  44.9897260  67.1314480  11.5508990  44.6961980
  70.4520850  11.0559170  34.6004230  70.2258430  10.3389610  35.1928870
  70.0617050  10.8071610  33.7625980  68.3802750  11.5705450  48.0801150
  68.7158990  12.1572140  48.7579070  67.4603090  11.4398160  48.3098940
  56.2336880  15.0826030  35.3748690  56.5934520  15.6815370  34.7205960
  56.0929220  15.6285920  36.1483720  70.0337100   8.9731110  36.2618390
  69.7458800   9.4343800  37.0496270  70.8289270   8.5128880  36.5302610
  56.2178740  13.3480890  49.8491090  56.3269860  12.4075630  49.7086480
  55.5659300  13.6135640  49.2004820  64.2091330  11.6196780  51.2489210
  63.8888200  10.9006020  51.7934900  63.5349690  12.2951850  51.3225270
  62.2505500  12.4657230  36.1922360  62.2415600  13.1986920  35.5766870
  61.3303860  12.2188810  36.2849320  57.8512140   7.6872120  36.9369120
  57.2440090   8.4271020  36.9464420  58.3261490   7.7771480  36.1107320
  65.2365100  12.5285470  34.8547550  65.3377080  12.3249460  33.9249530
  64.3366840  12.2743750  35.0595330  62.7590990   3.0865830  38.8371450
  62.0507140   3.5552170  39.2785060  63.0435470   2.4287840  39.4716640
  64.3846920   4.5062530  46.8363980  64.8832170   4.9808350  47.5015830
  64.5269870   3.5826050  47.0434010  63.8783210  15.0471790  39.5495220
  64.1324710  15.0093180  38.6274590  62.9295690  14.9205120  39.5423470
  69.8835790   5.9663670  41.1253730  68.9425930   5.9813900  41.3001420
  70.1979860   5.1799630  41.5714030  59.8617430   7.6483270  34.6857690
  60.6280700   7.5364630  35.2483120  59.9392120   6.9521240  34.0334460
  58.5564190   5.0808340  35.3690580  58.6367780   4.1335850  35.4807980
  59.4483940   5.4115220  35.4751240  59.3578900  15.2303730  42.4725120
  60.0941380  14.6819190  42.7433690  59.7419820  16.0959740  42.3331110
  56.2424380  11.2977300  38.3466630  55.3164160  11.5398440  38.3372040
  56.7080810  12.1251560  38.2251380  58.3637180  14.4149800  51.6610700
  59.1649910  14.7361850  52.0746100  57.8489000  14.0545380  52.3830610
  62.4681210  14.4034040  34.2950690  63.2609820  14.6922870  33.8432480
  61.9485560  13.9726210  33.6163170  67.2001810  10.5229670  51.6086110
  66.5939970  10.5461270  50.8681860  66.8955920   9.7912710  52.1453360
  68.6302180  14.2509960  50.2195520  69.5823930  14.1667980  50.1695760
  68.4830400  14.9151670  50.8929310  56.0834990   6.9023260  50.6046750
  56.5874010   6.3230540  51.1762980  55.3442410   7.1863490  51.1423120
  62.9858610   9.6237450  34.1593040  62.8809250   9.0089800  34.8854420
  62.8182830   9.1003340  33.3756050  63.1372930   8.3094250  50.1382270
  62.3718600   8.8779250  50.0536940  63.3188890   8.0170460  49.2450500
  66.2261340   8.6857480  34.7635030  65.6771440   9.1326780  35.4077770
  66.8480600   8.1806730  35.2872700  70.2796280  10.0399580  50.6957290
  71.0205750  10.3775340  50.1924750  69.5168960  10.2091640  50.1427060
  58.1158070   5.0452850  51.4996820  58.1563410   4.7466720  52.4082050
  58.9703570   5.4460460  51.3404340  61.8936460   7.6448400  36.6600330
  62.3152880   7.4788270  37.5031720  62.0187300   6.8348630  36.1655470
  60.0563880   3.6244950  49.4671310  59.5260340   3.1335900  48.8394650
  60.7251950   4.0529150  48.9329240  64.4064100   6.6686010  33.9077430
  64.9269760   5.9535030  33.5418580  65.0532500   7.3071880  34.2077940
  68.9541940   8.0914410  49.2312500  69.3682960   8.2459490  50.0802920
  68.0192940   8.2169630  49.3938280  69.4264110   5.4310570  51.2351650
  70.0084880   4.6762890  51.1472130  69.6025880   5.9618010  50.4583130
  63.7157170   8.0434890  47.2008430  64.1345280   8.8867620  47.0284670
  62.7965800   8.1806930  46.9715210  66.0521070   5.7751070  48.5846270
  66.1717280   5.1792210  49.3241110  66.9115070   5.8120760  48.1647570
  68.3908970   6.3288260  47.1608780  67.8644190   6.8530880  46.5573920
  68.7340310   6.9615650  47.7918510  60.7895360   3.7181630  33.6058490
  60.5884420   2.8548990  33.9671830  60.6187410   3.6314990  32.6680090
  61.5664590  14.3487900  48.3166160  61.0285680  15.0733960  47.9974860
  61.8198550  13.8718240  47.5263500  62.8189840   2.3172420  49.8422090
  63.4089530   2.0088270  50.5299910  62.0010080   1.8452170  49.9981990
  64.4226800  15.5839110  48.5752810  64.3485500  16.4874250  48.8825180
  63.5205640  15.2651010  48.5474880  64.9712130  14.7497620  36.1979170
  65.8662920  15.0882590  36.2197930  65.0029760  14.0277030  35.5703450
  58.6108290  10.1224670  34.4266170  59.0483160  10.6654340  35.0823750
  59.0956020   9.2971620  34.4362510  55.8254090  12.9113700  41.8786430
  56.1557100  12.0434760  41.6465070  56.2545090  13.1172220  42.7091390
  60.4216010  11.2422710  39.5388400  60.1211550  11.1187680  40.4392310
  60.3153500  10.3831300  39.1304130  56.3144300  13.7784290  44.6168060
  55.8775290  13.9585090  45.4492210  56.8821980  14.5358910  44.4749780
  56.1468730   6.2904520  40.9756940  55.4917570   6.0216160  40.3316640
  56.9846680   6.1809000  40.5258920  70.6358120  10.0053270  47.0021530
  69.8217960  10.4350430  47.2647320  71.0432320  10.6171680  46.3890580
  57.1844660   6.6757090  45.5160280  57.5517700   6.5884490  46.3956300
  56.6155480   5.9123640  45.4167140  56.7360660   3.5866180  49.4218700
  55.8416710   3.5532940  49.7612410  57.2758210   3.7852970  50.1869950
  55.3606810   3.5003450  36.9182270  54.4570890   3.7633650  36.7433930
  55.8447430   3.7714620  36.1382230  57.9034020   2.5568990  34.8276650
  58.6125720   2.1352210  34.3423930  57.1873960   2.6244220  34.1960000
  58.5996740  11.1889780  50.6780430  58.5566370  10.8182690  51.5594890
  58.7307750  12.1267350  50.8182250  62.3002770  12.7449370  46.2790150
  62.0594130  13.0123930  45.3920670  63.2405410  12.9155100  46.3341010
  58.4384770  14.1352030  47.7978210  57.8445090  14.0036730  48.5368250
  58.4308610  13.2990170  47.3320310  58.0697000  11.5010410  46.7486250
  57.3431060  10.8815700  46.6812200  58.1306150  11.8951020  45.8784330
  61.6742100  13.7155410  43.5335660  62.1907120  13.1042770  43.0083920
  62.3239480  14.2184190  44.0246670  64.4137600  14.6063900  44.3604640
  64.7015410  14.3518200  43.4837650  64.9260820  14.0541260  44.9510210
  56.3527000  14.8184800  39.9583010  56.1849040  14.1855480  40.6564900
  55.4861510  15.0244200  39.6077200  57.9589700  13.5118030  37.4033150
  57.4337320  13.8926060  36.6995110  57.8834280  14.1368800  38.1242860
  64.4809960  15.5280000  51.7272840  65.4077270  15.2924270  51.7708800
  64.4660390  16.3552000  51.2458870  60.5582670  15.4600410  36.2782400
  61.2901490  15.1759690  35.7306290  60.8176340  15.2213690  37.1681780
  59.7197460  11.5765140  36.2828730  59.0906340  12.0450240  36.8314560
  59.8345290  10.7314360  36.7174920  67.1747180   5.6270800  22.4329930
  67.0941230   4.7125410  22.1621640  66.7611600   6.1237870  21.7269640
  65.3065220   7.4049820  24.3139200  64.5307320   6.9250260  24.6037770
  65.9578150   6.7255470  24.1395360  59.3231050   7.7169630  25.1914960
  58.4915930   7.4618340  25.5911470  59.9312030   7.7880400  25.9272880
  69.3272650  11.8110010  23.0938330  68.8654180  11.0397250  23.4225500
  70.1398200  11.8376080  23.5990780  59.3032310  11.7509720  25.3872980
  59.6060350  10.8607460  25.2083200  60.0475900  12.3079940  25.1595230
  57.7323000   2.6771520  18.9757350  56.8439700   3.0187490  18.8737230
  58.0164190   2.4771840  18.0838180  55.6956010   5.2777170  24.8597050
  56.2672120   4.5099370  24.8600690  55.6957550   5.5765930  23.9503660
  65.5535960  14.0968020  22.7142320  64.9347400  14.5525520  22.1436760
  66.4087740  14.2519480  22.3132020  64.7474210  10.0807010  24.3209360
  64.6782490   9.1396950  24.1598490  65.5094070  10.1708420  24.8931930
  65.7779380   2.8877390  24.5478290  66.1544200   2.0149270  24.4351960
  65.6798890   3.2236090  23.6568730  57.5567550   3.1822030  25.2548320
  58.2377660   3.4460400  25.8735720  57.2415600   2.3422900  25.5886330
  61.7492120   4.2289390  24.3420910  62.2570340   4.7270360  24.9825930
  62.2805360   3.4524590  24.1660270  66.4199310   8.9807260  20.1074230
  65.8016580   9.4456710  19.5436950  66.9322560   9.6734740  20.5243740
  61.2831070   8.5083130  26.7857830  60.9500450   9.1352050  27.4278900
  61.4597750   9.0345010  26.0059500  69.7964980   2.3228210  24.2534170
  69.0920550   2.6113100  24.8337280  70.1577140   3.1328320  23.8933730
  60.4950170  10.4763930  28.6007010  61.1124170  11.1515010  28.3191460
  59.6343290  10.8851910  28.5094510  55.7882510   9.6663790  17.4813860
  55.4110490  10.1550890  16.7498760  56.0455580  10.3389070  18.1120390
  68.9486500  13.7847470  25.2306830  68.9613660  13.3809760  24.3629090
  68.3961720  14.5594760  25.1268260  70.2431920  10.5063690  20.3197000
  70.1328250   9.5638020  20.4446420  70.2400170  10.8679330  21.2059760
  68.3471940   8.6877310  26.5589440  68.7640730   8.4737420  25.7242900
  69.0711760   8.9450100  27.1298060  65.7852200   6.1329010  19.6759490
  64.8581480   6.0666390  19.9047960  65.9377020   7.0709140  19.5614730
  65.7721280   2.4046010  16.6726650  64.8324950   2.5659970  16.7579110
  66.0904540   3.1231690  16.1262640  69.8149490   7.6949310  20.1794740
  69.1961910   7.3568860  19.5321040  69.7973940   7.0509070  20.8873930
  69.2576050   3.8733850  27.5960550  68.8447230   4.6987560  27.8500540
  68.5252000   3.2878890  27.4036910  61.3908840   6.6593750  22.4579220
  60.9865840   5.9471000  21.9625120  61.4771960   6.3146990  23.3467260
  61.8590540  10.3461310  24.6218430  61.5618830   9.7406780  23.9426210
  62.8090360  10.3838620  24.5107790  60.1037460   3.4336960  26.2378260
  60.6552050   3.5432300  25.4631510  60.6180970   3.8074560  26.9533490
  69.9476150  13.9193180  28.2841530  69.4706710  14.7265370  28.0914140
  69.2637940  13.2671510  28.4367740  60.9508970  10.0843000  31.2726230
  60.0537500  10.3082970  31.5199630  60.9761840  10.2077940  30.3237630
  67.9914190   6.9336120  17.1867490  68.4307470   6.0958550  17.0405310
  68.7042610   7.5665520  17.2731630  59.7780190   6.9556320  29.8483600
  59.6387960   7.8279120  30.2171000  58.8961550   6.6129130  29.7031540
  66.1009570  11.8732190  21.1548730  66.5405480  12.6156520  20.7404120
  66.0396460  12.1158760  22.0787690  61.5760540  12.8978020  32.0568750
  61.5475970  13.3020970  31.1897180  61.4125510  11.9688380  31.8940350
  58.0913470   5.5538730  19.9585870  57.9711070   6.2800820  19.3467140
  57.7814360   4.7841640  19.4813780  55.7298840   8.7253870  25.7654510
  55.8079260   8.8602640  24.8210230  56.3440520   8.0169760  25.9582630
  56.9746470  10.4254060  22.1760690  56.5674550  10.5668650  21.3214290
  57.8659480  10.1414220  21.9731900  66.7925350  14.5745970  29.0827740
  67.3070020  14.4853980  29.8850170  65.9494430  14.9205670  29.3755650
  68.7679750  14.8601310  18.5111740  68.6080890  14.5704250  19.4093570
  68.6026460  14.0841440  17.9756970  61.2468130  14.6399840  20.2883360
  61.0710610  13.7235380  20.0751160  60.3923870  14.9987130  20.5281160
  68.4705880  12.3688870  17.0709740  67.7771040  12.3666160  16.4112020
  69.2128740  11.9448190  16.6403910  68.0355810  13.9951580  21.1458230
  68.4912760  13.2140960  21.4596850  68.3748330  14.7058400  21.6899410
  55.7858360   9.7668040  28.3048970  55.9489400   9.2973400  27.4868340
  56.2510810   9.2591600  28.9697810  69.8451450   2.9851270  30.0741520
  68.9945040   2.6857020  30.3950590  69.6853240   3.2293280  29.1625340
  66.9401160   4.4853020  32.1740310  67.2654570   3.6516770  31.8342540
  67.7281490   5.0081540  32.3218640  60.3491350   4.0207370  21.0690790
  60.1232270   3.8044540  21.9737410  59.5683880   4.4535830  20.7236760
  67.5789110   4.0270740  19.6681440  66.9798000   4.7506540  19.4845060
  68.1268720   3.9647520  18.8857890  62.7890560   4.9192950  31.7351060
  62.6934160   3.9787680  31.5851460  63.6322540   5.1408020  31.3399130
  66.1853980   2.6634280  21.6984720  66.5783550   2.9806480  20.8853410
  66.5470830   1.7846160  21.8129240  55.4088380   3.1955200  15.1317640
  55.3263050   4.1385960  15.2732630  55.0571440   3.0530110  14.2529990
  66.7709120   5.2540030  25.7935500  66.0390240   5.7626840  26.1425600
  66.3733460   4.4370010  25.4924280  63.2086510   1.9294230  24.1987990
  63.2122570   1.4884180  23.3492530  64.1037630   2.2511560  24.3059810
  63.2706660   2.9306310  17.1894750  63.3919480   2.8892790  18.1380570
  62.8855170   3.7930460  17.0341480  62.2828160   5.2407450  16.5878050
  61.7145060   4.7925700  15.9613960  62.9917160   5.6000230  16.0543200
  57.3597340   9.1419470  30.4644780  56.9752130   8.5013140  31.0627740
  57.6709530   9.8455590  31.0339510  63.5094480   5.9896010  25.9453400
  63.8764610   5.5154580  26.6914740  63.3199540   6.8637580  26.2861740
  61.2993850   5.0304650  28.2637610  60.9950920   5.9096630  28.4887970
  62.2540310   5.0904440  28.2995050  59.8275640   9.2365640  18.8604460
  59.0537900   8.6963260  18.7003180  60.5570270   8.7172250  18.5222220
  65.9682420   8.3040060  30.5399850  65.9019730   7.3835730  30.2857440
  65.3387560   8.4015500  31.2544490  68.7621950   3.9988610  17.0922400
  69.6501570   4.3105840  16.9173740  68.7327040   3.1260860  16.7002980
  59.8713040   8.9046020  22.4983270  60.3891710   8.1014280  22.4440160
  59.4197060   8.8425160  23.3400100  64.7582540  10.1712300  17.7710570
  65.0998240  10.9154530  17.2753890  63.9295250  10.4843420  18.1335400
  57.3557580   5.8707390  29.4108970  56.9972520   6.5361240  29.9982310
  57.0612140   5.0390940  29.7821590  60.5570700   6.3291630  32.2948520
  60.2570840   6.4748810  31.3976340  61.3281940   5.7696920  32.2021910
  65.8999150  11.1260630  30.2903650  65.9143690  10.1941590  30.0722560
  65.1924250  11.2120390  30.9293420  67.6409950   9.4928140  23.1356080
  67.9933770   8.8956270  22.4757450  66.7572280   9.1672370  23.3064330
  63.7273230  10.2525830  20.5426490  64.4144360  10.7995040  20.9234080
  62.9405650  10.7966560  20.5776100  55.8665630   5.8698650  16.0343570
  56.7360480   6.1523450  16.3179490  55.3755950   6.6834520  15.9192380
  63.0300440   7.2571860  20.1551850  63.4863220   8.0677110  20.3812040
  62.6788650   6.9395000  20.9870340  65.3333050  12.7678200  27.3844150
  65.9775270  12.9737580  28.0617570  65.6962490  12.0066600  26.9315000
  66.6065130  10.7710550  26.1021600  67.2487360  10.0703710  26.2153770
  67.1314480  11.5508990  25.9218490  70.4520850  11.0559170  15.8260740
  70.2258430  10.3389610  16.4185380  70.0617050  10.8071610  14.9882490
  68.3802750  11.5705450  29.3057660  68.7158990  12.1572140  29.9835580
  67.4603090  11.4398160  29.5355450  56.2336880  15.0826030  16.6005200
  56.5934520  15.6815370  15.9462470  56.0929220  15.6285920  17.3740230
  70.0337100   8.9731110  17.4874900  69.7458800   9.4343800  18.2752780
  70.8289270   8.5128880  17.7559120  56.2178740  13.3480890  31.0747600
  56.3269860  12.4075630  30.9342990  55.5659300  13.6135640  30.4261330
  64.2091330  11.6196780  32.4745720  63.8888200  10.9006020  33.0191410
  63.5349690  12.2951850  32.5481780  62.2505500  12.4657230  17.4178870
  62.2415600  13.1986920  16.8023380  61.3303860  12.2188810  17.5105830
  57.8512140   7.6872120  18.1625630  57.2440090   8.4271020  18.1720930
  58.3261490   7.7771480  17.3363830  65.2365100  12.5285470  16.0804060
  65.3377080  12.3249460  15.1506040  64.3366840  12.2743750  16.2851840
  62.7590990   3.0865830  20.0627960  62.0507140   3.5552170  20.5041570
  63.0435470   2.4287840  20.6973150  64.3846920   4.5062530  28.0620490
  64.8832170   4.9808350  28.7272340  64.5269870   3.5826050  28.2690520
  63.8783210  15.0471790  20.7751730  64.1324710  15.0093180  19.8531100
  62.9295690  14.9205120  20.7679980  69.8835790   5.9663670  22.3510240
  68.9425930   5.9813900  22.5257930  70.1979860   5.1799630  22.7970540
  59.8617430   7.6483270  15.9114200  60.6280700   7.5364630  16.4739630
  59.9392120   6.9521240  15.2590970  58.5564190   5.0808340  16.5947090
  58.6367780   4.1335850  16.7064490  59.4483940   5.4115220  16.7007750
  59.3578900  15.2303730  23.6981630  60.0941380  14.6819190  23.9690200
  59.7419820  16.0959740  23.5587620  56.2424380  11.2977300  19.5723140
  55.3164160  11.5398440  19.5628550  56.7080810  12.1251560  19.4507890
  58.3637180  14.4149800  32.8867210  59.1649910  14.7361850  33.3002610
  57.8489000  14.0545380  33.6087120  62.4681210  14.4034040  15.5207200
  63.2609820  14.6922870  15.0688990  61.9485560  13.9726210  14.8419680
  67.2001810  10.5229670  32.8342620  66.5939970  10.5461270  32.0938370
  66.8955920   9.7912710  33.3709870  68.6302180  14.2509960  31.4452030
  69.5823930  14.1667980  31.3952270  68.4830400  14.9151670  32.1185820
  56.0834990   6.9023260  31.8303260  56.5874010   6.3230540  32.4019490
  55.3442410   7.1863490  32.3679630  62.9858610   9.6237450  15.3849550
  62.8809250   9.0089800  16.1110930  62.8182830   9.1003340  14.6012560
  63.1372930   8.3094250  31.3638780  62.3718600   8.8779250  31.2793450
  63.3188890   8.0170460  30.4707010  66.2261340   8.6857480  15.9891540
  65.6771440   9.1326780  16.6334280  66.8480600   8.1806730  16.5129210
  70.2796280  10.0399580  31.9213800  71.0205750  10.3775340  31.4181260
  69.5168960  10.2091640  31.3683570  58.1158070   5.0452850  32.7253330
  58.1563410   4.7466720  33.6338560  58.9703570   5.4460460  32.5660850
  61.8936460   7.6448400  17.8856840  62.3152880   7.4788270  18.7288230
  62.0187300   6.8348630  17.3911980  60.0563880   3.6244950  30.6927820
  59.5260340   3.1335900  30.0651160  60.7251950   4.0529150  30.1585750
  64.4064100   6.6686010  15.1333940  64.9269760   5.9535030  14.7675090
  65.0532500   7.3071880  15.4334450  68.9541940   8.0914410  30.4569010
  69.3682960   8.2459490  31.3059430  68.0192940   8.2169630  30.6194790
  69.4264110   5.4310570  32.4608160  70.0084880   4.6762890  32.3728640
  69.6025880   5.9618010  31.6839640  63.7157170   8.0434890  28.4264940
  64.1345280   8.8867620  28.2541180  62.7965800   8.1806930  28.1971720
  66.0521070   5.7751070  29.8102780  66.1717280   5.1792210  30.5497620
  66.9115070   5.8120760  29.3904080  68.3908970   6.3288260  28.3865290
  67.8644190   6.8530880  27.7830430  68.7340310   6.9615650  29.0175020
  60.7895360   3.7181630  14.8315000  60.5884420   2.8548990  15.1928340
  60.6187410   3.6314990  13.8936600  61.5664590  14.3487900  29.5422670
  61.0285680  15.0733960  29.2231370  61.8198550  13.8718240  28.7520010
  62.8189840   2.3172420  31.0678600  63.4089530   2.0088270  31.7556420
  62.0010080   1.8452170  31.2238500  64.4226800  15.5839110  29.8009320
  64.3485500  16.4874250  30.1081690  63.5205640  15.2651010  29.7731390
  64.9712130  14.7497620  17.4235680  65.8662920  15.0882590  17.4454440
  65.0029760  14.0277030  16.7959960  58.6108290  10.1224670  15.6522680
  59.0483160  10.6654340  16.3080260  59.0956020   9.2971620  15.6619020
  55.8254090  12.9113700  23.1042940  56.1557100  12.0434760  22.8721580
  56.2545090  13.1172220  23.9347900  60.4216010  11.2422710  20.7644910
  60.1211550  11.1187680  21.6648820  60.3153500  10.3831300  20.3560640
  56.3144300  13.7784290  25.8424570  55.8775290  13.9585090  26.6748720
  56.8821980  14.5358910  25.7006290  56.1468730   6.2904520  22.2013450
  55.4917570   6.0216160  21.5573150  56.9846680   6.1809000  21.7515430
  70.6358120  10.0053270  28.2278040  69.8217960  10.4350430  28.4903830
  71.0432320  10.6171680  27.6147090  57.1844660   6.6757090  26.7416790
  57.5517700   6.5884490  27.6212810  56.6155480   5.9123640  26.6423650
  56.7360660   3.5866180  30.6475210  55.8416710   3.5532940  30.9868920
  57.2758210   3.7852970  31.4126460  55.3606810   3.5003450  18.1438780
  54.4570890   3.7633650  17.9690440  55.8447430   3.7714620  17.3638740
  57.9034020   2.5568990  16.0533160  58.6125720   2.1352210  15.5680440
  57.1873960   2.6244220  15.4216510  58.5996740  11.1889780  31.9036940
  58.5566370  10.8182690  32.7851400  58.7307750  12.1267350  32.0438760
  62.3002770  12.7449370  27.5046660  62.0594130  13.0123930  26.6177180
  63.2405410  12.9155100  27.5597520  58.4384770  14.1352030  29.0234720
  57.8445090  14.0036730  29.7624760  58.4308610  13.2990170  28.5576820
  58.0697000  11.5010410  27.9742760  57.3431060  10.8815700  27.9068710
  58.1306150  11.8951020  27.1040840  61.6742100  13.7155410  24.7592170
  62.1907120  13.1042770  24.2340430  62.3239480  14.2184190  25.2503180
  64.4137600  14.6063900  25.5861150  64.7015410  14.3518200  24.7094160
  64.9260820  14.0541260  26.1766720  56.3527000  14.8184800  21.1839520
  56.1849040  14.1855480  21.8821410  55.4861510  15.0244200  20.8333710
  57.9589700  13.5118030  18.6289660  57.4337320  13.8926060  17.9251620
  57.8834280  14.1368800  19.3499370  64.4809960  15.5280000  32.9529350
  65.4077270  15.2924270  32.9965310  64.4660390  16.3552000  32.4715380
  60.5582670  15.4600410  17.5038910  61.2901490  15.1759690  16.9562800
  60.8176340  15.2213690  18.3938290  59.7197460  11.5765140  17.5085240
  59.0906340  12.0450240  18.0571070  59.8345290  10.7314360  17.9431430
  67.1747180   5.6270800   3.6586440  67.0941230   4.7125410   3.3878150
  66.7611600   6.1237870   2.9526150  65.3065220   7.4049820   5.5395710
  64.5307320   6.9250260   5.8294280  65.9578150   6.7255470   5.3651870
  59.3231050   7.7169630   6.4171470  58.4915930   7.4618340   6.8167980
  59.9312030   7.7880400   7.1529390  69.3272650  11.8110010   4.3194840
  68.8654180  11.0397250   4.6482010  70.1398200  11.8376080   4.8247290
  59.3032310  11.7509720   6.6129490  59.6060350  10.8607460   6.4339710
  60.0475900  12.3079940   6.3851740  55.6956010   5.2777170   6.0853560
  56.2672120   4.5099370   6.0857200  55.6957550   5.5765930   5.1760170
  65.5535960  14.0968020   3.9398830  64.9347400  14.5525520   3.3693270
  66.4087740  14.2519480   3.5388530  64.7474210  10.0807010   5.5465870
  64.6782490   9.1396950   5.3855000  65.5094070  10.1708420   6.1188440
  65.7779380   2.8877390   5.7734800  66.1544200   2.0149270   5.6608470
  65.6798890   3.2236090   4.8825240  57.5567550   3.1822030   6.4804830
  58.2377660   3.4460400   7.0992230  57.2415600   2.3422900   6.8142840
  61.7492120   4.2289390   5.5677420  62.2570340   4.7270360   6.2082440
  62.2805360   3.4524590   5.3916780  61.2831070   8.5083130   8.0114340
  60.9500450   9.1352050   8.6535410  61.4597750   9.0345010   7.2316010
  69.7964980   2.3228210   5.4790680  69.0920550   2.6113100   6.0593790
  70.1577140   3.1328320   5.1190240  60.4950170  10.4763930   9.8263520
  61.1124170  11.1515010   9.5447970  59.6343290  10.8851910   9.7351020
  68.9486500  13.7847470   6.4563340  68.9613660  13.3809760   5.5885600
  68.3961720  14.5594760   6.3524770  68.3471940   8.6877310   7.7845950
  68.7640730   8.4737420   6.9499410  69.0711760   8.9450100   8.3554570
  69.2576050   3.8733850   8.8217060  68.8447230   4.6987560   9.0757050
  68.5252000   3.2878890   8.6293420  61.3908840   6.6593750   3.6835730
  60.9865840   5.9471000   3.1881630  61.4771960   6.3146990   4.5723770
  61.8590540  10.3461310   5.8474940  61.5618830   9.7406780   5.1682720
  62.8090360  10.3838620   5.7364300  60.1037460   3.4336960   7.4634770
  60.6552050   3.5432300   6.6888020  60.6180970   3.8074560   8.1790000
  69.9476150  13.9193180   9.5098040  69.4706710  14.7265370   9.3170650
  69.2637940  13.2671510   9.6624250  60.9508970  10.0843000  12.4982740
  60.0537500  10.3082970  12.7456140  60.9761840  10.2077940  11.5494140
  59.7780190   6.9556320  11.0740110  59.6387960   7.8279120  11.4427510
  58.8961550   6.6129130  10.9288050  66.1009570  11.8732190   2.3805240
  66.5405480  12.6156520   1.9660630  66.0396460  12.1158760   3.3044200
  61.5760540  12.8978020  13.2825260  61.5475970  13.3020970  12.4153690
  61.4125510  11.9688380  13.1196860  55.7298840   8.7253870   6.9911020
  55.8079260   8.8602640   6.0466740  56.3440520   8.0169760   7.1839140
  56.9746470  10.4254060   3.4017200  56.5674550  10.5668650   2.5470800
  57.8659480  10.1414220   3.1988410  66.7925350  14.5745970  10.3084250
  67.3070020  14.4853980  11.1106680  65.9494430  14.9205670  10.6012160
  68.0355810  13.9951580   2.3714740  68.4912760  13.2140960   2.6853360
  68.3748330  14.7058400   2.9155920  55.7858360   9.7668040   9.5305480
  55.9489400   9.2973400   8.7124850  56.2510810   9.2591600  10.1954320
  69.8451450   2.9851270  11.2998030  68.9945040   2.6857020  11.6207100
  69.6853240   3.2293280  10.3881850  66.9401160   4.4853020  13.3996820
  67.2654570   3.6516770  13.0599050  67.7281490   5.0081540  13.5475150
  60.3491350   4.0207370   2.2947300  60.1232270   3.8044540   3.1993920
  59.5683880   4.4535830   1.9493270  62.7890560   4.9192950  12.9607570
  62.6934160   3.9787680  12.8107970  63.6322540   5.1408020  12.5655640
  66.1853980   2.6634280   2.9241230  66.5783550   2.9806480   2.1109920
  66.5470830   1.7846160   3.0385750  66.7709120   5.2540030   7.0192010
  66.0390240   5.7626840   7.3682110  66.3733460   4.4370010   6.7180790
  63.2086510   1.9294230   5.4244500  63.2122570   1.4884180   4.5749040
  64.1037630   2.2511560   5.5316320  57.3597340   9.1419470  11.6901290
  56.9752130   8.5013140  12.2884250  57.6709530   9.8455590  12.2596020
  63.5094480   5.9896010   7.1709910  63.8764610   5.5154580   7.9171250
  63.3199540   6.8637580   7.5118250  61.2993850   5.0304650   9.4894120
  60.9950920   5.9096630   9.7144480  62.2540310   5.0904440   9.5251560
  65.9682420   8.3040060  11.7656360  65.9019730   7.3835730  11.5113950
  65.3387560   8.4015500  12.4801000  59.8713040   8.9046020   3.7239780
  60.3891710   8.1014280   3.6696670  59.4197060   8.8425160   4.5656610
  57.3557580   5.8707390  10.6365480  56.9972520   6.5361240  11.2238820
  57.0612140   5.0390940  11.0078100  60.5570700   6.3291630  13.5205030
  60.2570840   6.4748810  12.6232850  61.3281940   5.7696920  13.4278420
  65.8999150  11.1260630  11.5160160  65.9143690  10.1941590  11.2979070
  65.1924250  11.2120390  12.1549930  67.6409950   9.4928140   4.3612590
  67.9933770   8.8956270   3.7013960  66.7572280   9.1672370   4.5320840
  63.7273230  10.2525830   1.7683000  64.4144360  10.7995040   2.1490590
  62.9405650  10.7966560   1.8032610  65.3333050  12.7678200   8.6100660
  65.9775270  12.9737580   9.2874080  65.6962490  12.0066600   8.1571510
  66.6065130  10.7710550   7.3278110  67.2487360  10.0703710   7.4410280
  67.1314480  11.5508990   7.1475000  68.3802750  11.5705450  10.5314170
  68.7158990  12.1572140  11.2092090  67.4603090  11.4398160  10.7611960
  56.2178740  13.3480890  12.3004110  56.3269860  12.4075630  12.1599500
  55.5659300  13.6135640  11.6517840  64.2091330  11.6196780  13.7002230
  63.8888200  10.9006020  14.2447920  63.5349690  12.2951850  13.7738290
  64.3846920   4.5062530   9.2877000  64.8832170   4.9808350   9.9528850
  64.5269870   3.5826050   9.4947030  69.8835790   5.9663670   3.5766750
  68.9425930   5.9813900   3.7514440  70.1979860   5.1799630   4.0227050
  59.3578900  15.2303730   4.9238140  60.0941380  14.6819190   5.1946710
  59.7419820  16.0959740   4.7844130  58.3637180  14.4149800  14.1123720
  59.1649910  14.7361850  14.5259120  57.8489000  14.0545380  14.8343630
  67.2001810  10.5229670  14.0599130  66.5939970  10.5461270  13.3194880
  66.8955920   9.7912710  14.5966380  68.6302180  14.2509960  12.6708540
  69.5823930  14.1667980  12.6208780  68.4830400  14.9151670  13.3442330
  56.0834990   6.9023260  13.0559770  56.5874010   6.3230540  13.6276000
  55.3442410   7.1863490  13.5936140  63.1372930   8.3094250  12.5895290
  62.3718600   8.8779250  12.5049960  63.3188890   8.0170460  11.6963520
  70.2796280  10.0399580  13.1470310  71.0205750  10.3775340  12.6437770
  69.5168960  10.2091640  12.5940080  58.1158070   5.0452850  13.9509840
  58.1563410   4.7466720  14.8595070  58.9703570   5.4460460  13.7917360
  60.0563880   3.6244950  11.9184330  59.5260340   3.1335900  11.2907670
  60.7251950   4.0529150  11.3842260  68.9541940   8.0914410  11.6825520
  69.3682960   8.2459490  12.5315940  68.0192940   8.2169630  11.8451300
  69.4264110   5.4310570  13.6864670  70.0084880   4.6762890  13.5985150
  69.6025880   5.9618010  12.9096150  63.7157170   8.0434890   9.6521450
  64.1345280   8.8867620   9.4797690  62.7965800   8.1806930   9.4228230
  66.0521070   5.7751070  11.0359290  66.1717280   5.1792210  11.7754130
  66.9115070   5.8120760  10.6160590  68.3908970   6.3288260   9.6121800
  67.8644190   6.8530880   9.0086940  68.7340310   6.9615650  10.2431530
  61.5664590  14.3487900  10.7679180  61.0285680  15.0733960  10.4487880
  61.8198550  13.8718240   9.9776520  62.8189840   2.3172420  12.2935110
  63.4089530   2.0088270  12.9812930  62.0010080   1.8452170  12.4495010
  64.4226800  15.5839110  11.0265830  64.3485500  16.4874250  11.3338200
  63.5205640  15.2651010  10.9987900  55.8254090  12.9113700   4.3299450
  56.1557100  12.0434760   4.0978090  56.2545090  13.1172220   5.1604410
  56.3144300  13.7784290   7.0681080  55.8775290  13.9585090   7.9005230
  56.8821980  14.5358910   6.9262800  56.1468730   6.2904520   3.4269960
  55.4917570   6.0216160   2.7829660  56.9846680   6.1809000   2.9771940
  70.6358120  10.0053270   9.4534550  69.8217960  10.4350430   9.7160340
  71.0432320  10.6171680   8.8403600  57.1844660   6.6757090   7.9673300
  57.5517700   6.5884490   8.8469320  56.6155480   5.9123640   7.8680160
  56.7360660   3.5866180  11.8731720  55.8416710   3.5532940  12.2125430
  57.2758210   3.7852970  12.6382970  58.5996740  11.1889780  13.1293450
  58.5566370  10.8182690  14.0107910  58.7307750  12.1267350  13.2695270
  62.3002770  12.7449370   8.7303170  62.0594130  13.0123930   7.8433690
  63.2405410  12.9155100   8.7854030  58.4384770  14.1352030  10.2491230
  57.8445090  14.0036730  10.9881270  58.4308610  13.2990170   9.7833330
  58.0697000  11.5010410   9.1999270  57.3431060  10.8815700   9.1325220
  58.1306150  11.8951020   8.3297350  61.6742100  13.7155410   5.9848680
  62.1907120  13.1042770   5.4596940  62.3239480  14.2184190   6.4759690
  64.4137600  14.6063900   6.8117660  64.7015410  14.3518200   5.9350670
  64.9260820  14.0541260   7.4023230  56.3527000  14.8184800   2.4096030
  56.1849040  14.1855480   3.1077920  55.4861510  15.0244200   2.0590220
  64.4809960  15.5280000  14.1785860  65.4077270  15.2924270  14.2221820
  64.4660390  16.3552000  13.6971890  48.4003690  61.9501270  78.7560400
  48.3197740  61.0355880  78.4852110  47.9868110  62.4468340  78.0500110
  46.5321730  63.7280290  80.6369670  45.7563830  63.2480730  80.9268240
  47.1834660  63.0485940  80.4625830  40.5487560  64.0400100  81.5145430
  39.7172440  63.7848810  81.9141940  41.1568540  64.1110870  82.2503350
  38.9579510  59.0001990  75.2987820  38.0696210  59.3417960  75.1967700
  39.2420700  58.8002310  74.4068650  36.9212520  61.6007640  81.1827520
  37.4928630  60.8329840  81.1831160  36.9214060  61.8996400  80.2734130
  45.9730720  66.4037480  80.6439830  45.9039000  65.4627420  80.4828960
  46.7350580  66.4938890  81.2162400  38.1637390  57.0092000  82.9696450
  37.9840230  56.1117750  83.2499210  37.7617470  57.5563870  83.6443400
  47.0035890  59.2107860  80.8708760  47.3800710  58.3379740  80.7582430
  46.9055400  59.5466560  79.9799200  41.1340900  57.5833490  76.3326200
  41.2407650  58.4837220  76.6394960  40.2233260  57.5351460  76.0420850
  50.7860010  56.7058300  77.8037100  51.6069630  56.2154870  77.8462580
  50.8194090  57.2955960  78.5568940  38.7824060  59.5052500  81.5778790
  39.4634170  59.7690870  82.1966190  38.4672110  58.6653370  81.9116800
  42.9748630  60.5519860  80.6651380  43.4826850  61.0500830  81.3056400
  43.5061870  59.7755060  80.4890740  47.6455820  65.3037730  76.4304700
  47.0273090  65.7687180  75.8667420  48.1579070  65.9965210  76.8474210
  42.5087580  64.8313600  83.1088300  42.1756960  65.4582520  83.7509370
  42.6854260  65.3575480  82.3289970  51.0221490  58.6458680  80.5764640
  50.3177060  58.9343570  81.1567750  51.3833650  59.4558790  80.2164200
  40.9400060  56.9028380  82.9385250  41.2816870  57.7470430  82.6439120
  40.0015870  57.0512120  83.0550590  37.0139020  65.9894260  73.8044330
  36.6367000  66.4781360  73.0729230  37.2712090  66.6619540  74.4350860
  54.0908410  58.0913470  80.9673850  53.1433320  58.1252450  81.0989280
  54.4158400  58.9052420  81.3523210  44.6227950  54.3910650  79.2629840
  44.9302930  53.8357540  78.5465340  43.6928650  54.5255110  79.0802830
  51.4688430  66.8294160  76.6427470  51.3584760  65.8868490  76.7676890
  51.4656680  67.1909800  77.5290230  49.5728450  65.0107780  82.8819910
  49.9897240  64.7967890  82.0473370  50.2968270  65.2680570  83.4528530
  47.0108710  62.4559480  75.9989960  46.0837990  62.3896860  76.2278430
  47.1633530  63.3939610  75.8845200  46.9977790  58.7276480  72.9957120
  46.0581460  58.8890440  73.0809580  47.3161050  59.4462160  72.4493110
  53.5190550  63.4095000  82.9736150  52.6909180  63.4788090  82.4986280
  54.1141030  63.9949310  82.5051980  51.0406000  64.0179780  76.5025210
  50.4218420  63.6799330  75.8551510  51.0230450  63.3739540  77.2104400
  42.6165350  62.9824220  78.7809690  42.2122350  62.2701470  78.2855590
  42.7028470  62.6377460  79.6697730  43.0847050  66.6691780  80.9448900
  42.7875340  66.0637250  80.2656680  44.0346870  66.7069090  80.8338260
  41.3293970  59.7567430  82.5608730  41.8808560  59.8662770  81.7861980
  41.8437480  60.1305030  83.2763960  49.2170700  63.2566590  73.5097960
  49.6563980  62.4189020  73.3635780  49.9299120  63.8895990  73.5962100
  39.3169980  61.8769200  76.2816340  39.1967580  62.6031290  75.6697610
  39.0070870  61.1072110  75.8044250  36.9555350  65.0484340  82.0884980
  37.0335770  65.1833110  81.1440700  37.5697030  64.3400230  82.2813100
  38.2002980  66.7484530  78.4991160  37.7931060  66.8899120  77.6444760
  39.0915990  66.4644690  78.2962370  41.7833640  55.2204270  79.6640010
  41.3401790  56.0013810  79.3324530  42.3418630  55.5434160  80.3710950
  44.8992460  54.8414970  74.5445840  44.2746640  54.8374840  75.2699150
  44.8122580  53.9745930  74.1481810  43.8209540  55.7651600  81.5229610
  44.1181870  56.6714430  81.4421630  44.3695100  55.2770380  80.9089180
  41.5747860  60.3437840  77.3921260  41.3488780  60.1275010  78.2967880
  40.7940390  60.7766300  77.0467230  48.8045620  60.3501210  75.9911910
  48.2054510  61.0737010  75.8075530  49.3525230  60.2877990  75.2088360
  47.4110490  58.9864750  78.0215190  47.8040060  59.3036950  77.2083880
  47.7727340  58.1076630  78.1359710  36.4474660  55.5765550  80.2445390
  36.1587710  56.1468410  80.9570370  37.1920420  55.0970000  80.6076620
  36.6344890  59.5185670  71.4548110  36.5519560  60.4616430  71.5963100
  36.2827950  59.3760580  70.5760460  47.9965630  61.5770500  82.1165970
  47.2646750  62.0857310  82.4656070  47.5989970  60.7600480  81.8154750
  44.4343020  58.2524700  80.5218460  44.4379080  57.8114650  79.6723000
  45.3294140  58.5742030  80.6290280  40.2845400  58.1351190  79.4812670
  39.9445450  58.6126420  80.2379720  39.5222720  57.6816310  79.1213770
  44.4963170  59.2536780  73.5125220  44.6175990  59.2123260  74.4611040
  44.1111680  60.1160930  73.3571950  48.4591540  57.0304180  81.5288910
  48.4764280  57.4812830  82.3730760  48.2107120  56.1309820  81.7422350
  43.5084670  61.5637920  72.9108520  42.9401570  61.1156170  72.2844430
  44.2173670  61.9230700  72.3773670  44.7350990  62.3126480  82.2683870
  45.1021120  61.8385050  83.0145210  44.5456050  63.1868050  82.6092210
  37.5991480  57.0570170  78.3977340  37.3138400  56.6925840  79.2355960
  37.5370340  56.3250630  77.7840480  41.0532150  65.5596110  75.1834930
  40.2794410  65.0193730  75.0233650  41.7826780  65.0402720  74.8452690
  51.8120130  64.5561470  80.9761320  52.5319250  65.0516760  80.5857430
  51.6101950  63.8779360  80.3315190  47.2730070  55.9499430  75.1190710
  46.4594680  55.4512600  75.0436020  47.0792020  56.7897680  74.7027060
  49.9878460  60.3219080  73.4152870  50.8758080  60.6336310  73.2404210
  49.9583550  59.4491330  73.0233450  41.0969550  65.2276490  78.8213740
  41.6148220  64.4244750  78.7670630  40.6453570  65.1655630  79.6630570
  45.9839050  66.4942770  74.0941040  46.3254750  67.2385000  73.5984360
  45.1551760  66.8073890  74.4565870  52.2592730  61.6330920  72.8832730
  52.1756450  62.0645140  72.0329170  52.9786920  62.0929270  73.3159550
  48.8666460  65.8158610  79.4586550  49.2190280  65.2186740  78.7987920
  47.9828790  65.4902840  79.6294800  44.9529740  66.5756300  76.8656960
  45.6400870  67.1225510  77.2464550  44.1662160  67.1197030  76.9006570
  37.0922140  62.1929120  72.3574040  37.9616990  62.4753920  72.6409960
  36.6012460  63.0064990  72.2422850  44.2556950  63.5802330  76.4782320
  44.7119730  64.3907580  76.7042510  43.9045160  63.2625470  77.3100810
  40.1568730  53.9239980  76.9504840  40.0283360  53.9157880  77.8989760
  39.3330750  54.2623070  76.5995850  51.6777360  67.3789640  72.1491210
  51.4514940  66.6620080  72.7415850  51.2873560  67.1302080  71.3112960
  51.2593610  65.2961580  73.8105370  50.9715310  65.7574270  74.5983250
  52.0545780  64.8359350  74.0789590  39.0768650  64.0102590  74.4856100
  38.4696600  64.7501490  74.4951400  39.5518000  64.1001950  73.6594300
  52.0163470  57.1310350  74.9700550  51.3876630  57.2356020  74.2558780
  51.5215390  57.3507130  75.7594430  43.9847500  59.4096300  76.3858430
  43.2763650  59.8782640  76.8272040  44.2691980  58.7518310  77.0203620
  48.0162930  56.1346960  77.8254220  47.8930710  56.1533090  76.8763730
  48.9647490  56.1825900  77.9452620  42.1882520  57.7181380  73.7609140
  43.0373050  58.1551530  73.6949330  41.8213790  58.0301640  74.5881200
  51.1092300  62.2894140  78.6740710  50.1682440  62.3044370  78.8488400
  51.4236370  61.5030100  79.1201010  41.0873940  63.9713740  72.2344670
  41.8537210  63.8595100  72.7970100  41.1648630  63.2751710  71.5821440
  39.7820700  61.4038810  72.9177560  39.8624290  60.4566320  73.0294960
  40.6740450  61.7345690  73.0238220  44.2115120  65.9467920  71.7080020
  44.1065760  65.3320270  72.4341400  44.0439340  65.4233810  70.9243030
  47.4517850  65.0087950  72.3122010  46.9027950  65.4557250  72.9564750
  48.0737110  64.5037200  72.8359680  43.1192970  63.9678870  74.2087310
  43.5409390  63.8018740  75.0518700  43.2443810  63.1579100  73.7142450
  45.6320610  62.9916480  71.4564410  46.1526270  62.2765500  71.0905560
  46.2789010  63.6302350  71.7564920  42.0151870  60.0412100  71.1545470
  41.8140930  59.1779460  71.5158810  41.8443920  59.9545460  70.2167070
  49.4940180  54.8520330  73.6832350  49.7742470  54.0088230  74.0391770
  48.7205910  55.0843440  74.1971100  40.8134670  57.1412720  71.1423350
  41.1160570  57.1480150  70.2342500  41.5529260  56.7910580  71.6391010
  44.0319600  56.0847340  72.1279550  43.6841600  55.4071330  71.5482000
  44.2332370  55.6236850  72.9422940  39.8364800  66.4455140  71.9753150
  40.2739670  66.9884810  72.6310730  40.3212530  65.6202090  71.9849490
  41.6472520  67.5653180  77.0875380  41.3468060  67.4418150  77.9879290
  41.5410010  66.7061770  76.6791110  53.8720900  64.0897060  74.2936260
  54.6339810  64.6593710  74.3995950  53.8875270  63.5224260  75.0644570
  37.3725240  62.6134990  78.5243920  36.7174080  62.3446630  77.8803620
  38.2103190  62.5039470  78.0745900  54.8780870  64.9447160  79.1378190
  55.2489700  64.1614480  78.7314160  55.5182800  65.6336260  78.9595490
  53.9240070  64.3831430  71.4508780  54.1988910  65.2910310  71.3228000
  53.7350810  64.3193960  72.3870770  50.3215680  57.4076280  72.7462410
  50.7400560  57.2207260  71.9059070  50.0151740  56.5555330  73.0565340
  53.8205410  62.3200420  76.4438210  53.4449010  61.5528350  76.0119500
  53.0908530  62.7023120  76.9313140  36.5863320  59.8233920  74.4669250
  35.6827400  60.0864120  74.2920910  37.0703940  60.0945090  73.6869210
  53.0956370  60.5457910  79.7445450  53.6193850  60.0520560  79.1135620
  53.6815790  60.6808270  80.4893020  53.2746090  60.6297780  83.2665000
  52.3248800  60.5961320  83.3809990  53.4559100  61.5397890  83.0314770
  39.1290530  58.8799460  72.3763630  39.8382230  58.4582680  71.8910910
  38.4130470  58.9474690  71.7446980  38.7764690  54.9338790  71.4166280
  39.4992820  55.4747730  71.7347500  39.0489210  54.6602210  70.5407820
  52.5856340  59.8031260  75.6837860  53.0815460  59.5702130  76.4686740
  52.3872410  58.9643100  75.2675500  38.4656880  54.1844980  81.3188900
  39.1133070  53.6342360  80.8784060  38.8858720  54.4388130  82.1404710
  54.0143500  58.4392210  78.2175540  53.9042780  58.2848250  79.1557810
  54.7751090  57.9113150  77.9750950  54.9033770  56.2700130  71.4581680
  55.8283080  56.1381310  71.2499970  54.8809560  56.3492950  72.4118130
  54.9772260  57.0410790  74.0838390  54.1823760  56.9755910  74.6131300
  55.1815540  57.9761430  74.0723740  46.8571120  54.6684570  82.4888130
  46.0742910  55.1430070  82.7684890  46.5634050  53.7639400  82.3801310
  51.4092190  55.3707670  80.5337220  51.8500280  55.3152770  79.6858820
  51.1399780  56.2865680  80.6047400  53.2730760  55.0022910  78.5446040
  53.2119160  54.0584130  78.3977060  54.0522790  55.1103000  79.0899500
  38.2011530  54.9732050  75.0101850  38.9590890  55.0860930  74.4365880
  37.7388700  55.8101250  74.9645280  44.7425340  57.0871320  78.0004160
  43.9299850  56.7128210  77.6600040  45.2466980  56.3316400  78.3025350
  49.2450320  53.7513770  79.2387230  49.8479690  54.3233980  79.7135750
  48.5043310  54.3153210  79.0161130  52.3884920  54.1535330  74.5127510
  52.5835550  55.0518780  74.7794940  51.6014790  53.9222410  75.0060460
  40.5736680  55.4996100  73.5503820  41.1029440  54.7125900  73.4211770
  41.2065000  56.1787290  73.7839350  42.7674520  55.2371240  76.6049210
  42.1377260  54.5358550  76.7719340  42.2279660  55.9975370  76.3882370
  48.4003690  61.9501270  59.9816910  48.3197740  61.0355880  59.7108620
  47.9868110  62.4468340  59.2756620  46.5321730  63.7280290  61.8626180
  45.7563830  63.2480730  62.1524750  47.1834660  63.0485940  61.6882340
  40.5487560  64.0400100  62.7401940  39.7172440  63.7848810  63.1398450
  41.1568540  64.1110870  63.4759860  38.9579510  59.0001990  56.5244330
  38.0696210  59.3417960  56.4224210  39.2420700  58.8002310  55.6325160
  36.9212520  61.6007640  62.4084030  37.4928630  60.8329840  62.4087670
  36.9214060  61.8996400  61.4990640  45.9730720  66.4037480  61.8696340
  45.9039000  65.4627420  61.7085470  46.7350580  66.4938890  62.4418910
  38.1637390  57.0092000  64.1952960  37.9840230  56.1117750  64.4755720
  37.7617470  57.5563870  64.8699910  47.0035890  59.2107860  62.0965270
  47.3800710  58.3379740  61.9838940  46.9055400  59.5466560  61.2055710
  41.1340900  57.5833490  57.5582710  41.2407650  58.4837220  57.8651470
  40.2233260  57.5351460  57.2677360  38.7824060  59.5052500  62.8035300
  39.4634170  59.7690870  63.4222700  38.4672110  58.6653370  63.1373310
  42.9748630  60.5519860  61.8907890  43.4826850  61.0500830  62.5312910
  43.5061870  59.7755060  61.7147250  55.0759560  58.7225050  65.5937240
  54.3711730  59.1106760  65.0752350  55.3417480  59.4175340  66.1958170
  41.2584730  55.1918420  66.1571310  41.2603170  55.7090810  65.3517210
  40.4289040  54.7148600  66.1341240  47.6455820  65.3037730  57.6561210
  47.0273090  65.7687180  57.0923930  48.1579070  65.9965210  58.0730720
  42.5087580  64.8313600  64.3344810  42.1756960  65.4582520  64.9765880
  42.6854260  65.3575480  63.5546480  40.9400060  56.9028380  64.1641760
  41.2816870  57.7470430  63.8695630  40.0015870  57.0512120  64.2807100
  41.7206680  66.7994400  66.1493990  42.3380680  67.4745480  65.8678440
  40.8599800  67.2082380  66.0581490  37.0139020  65.9894260  55.0300840
  36.6367000  66.4781360  54.2985740  37.2712090  66.6619540  55.6607370
  54.0908410  58.0913470  62.1930360  53.1433320  58.1252450  62.3245790
  54.4158400  58.9052420  62.5779720  51.4688430  66.8294160  57.8683980
  51.3584760  65.8868490  57.9933400  51.4656680  67.1909800  58.7546740
  49.5728450  65.0107780  64.1076420  49.9897240  64.7967890  63.2729880
  50.2968270  65.2680570  64.6785040  47.0108710  62.4559480  57.2246470
  46.0837990  62.3896860  57.4534940  47.1633530  63.3939610  57.1101710
  46.9977790  58.7276480  54.2213630  46.0581460  58.8890440  54.3066090
  47.3161050  59.4462160  53.6749620  53.5190550  63.4095000  64.1992660
  52.6909180  63.4788090  63.7242790  54.1141030  63.9949310  63.7308490
  51.0406000  64.0179780  57.7281720  50.4218420  63.6799330  57.0808020
  51.0230450  63.3739540  58.4360910  50.4832560  60.1964320  65.1447530
  50.0703740  61.0218030  65.3987520  49.7508510  59.6109360  64.9523890
  42.6165350  62.9824220  60.0066200  42.2122350  62.2701470  59.5112100
  42.7028470  62.6377460  60.8954240  43.0847050  66.6691780  62.1705410
  42.7875340  66.0637250  61.4913190  44.0346870  66.7069090  62.0594770
  41.3293970  59.7567430  63.7865240  41.8808560  59.8662770  63.0118490
  41.8437480  60.1305030  64.5020470  42.1765480  66.4073470  68.8213210
  41.2794010  66.6313440  69.0686610  42.2018350  66.5308410  67.8724610
  49.2170700  63.2566590  54.7354470  49.6563980  62.4189020  54.5892290
  49.9299120  63.8895990  54.8218610  41.0036700  63.2786790  67.3970580
  40.8644470  64.1509590  67.7657980  40.1218060  62.9359600  67.2518520
  52.7987840  54.5109400  53.0495510  52.4860500  54.6036230  53.9494580
  53.5600310  55.0890430  52.9992940  39.3169980  61.8769200  57.5072850
  39.1967580  62.6031290  56.8954120  39.0070870  61.1072110  57.0300760
  36.9555350  65.0484340  63.3141490  37.0335770  65.1833110  62.3697210
  37.5697030  64.3400230  63.5069610  38.2002980  66.7484530  59.7247670
  37.7931060  66.8899120  58.8701270  39.0915990  66.4644690  59.5218880
  54.1565120  67.1948440  68.0619910  54.2828180  66.9560320  67.1437090
  54.1986500  66.3632980  68.5341990  54.0089130  59.2480900  69.0269650
  53.3933400  59.7560570  68.4985110  53.6885550  58.3479230  68.9695590
  37.0114870  66.0898510  65.8535950  37.1745910  65.6203870  65.0355320
  37.4767320  65.5822070  66.5184790  46.0703450  58.0872790  66.4931840
  45.6082820  58.2955810  67.3051780  45.6681560  57.2732140  66.1902510
  51.0707960  59.3081740  67.6228500  50.2201550  59.0087490  67.9437570
  50.9109750  59.5523750  66.7112320  48.1657670  60.8083490  69.7227290
  48.4911080  59.9747240  69.3829520  48.9538000  61.3312010  69.8705620
  41.5747860  60.3437840  58.6177770  41.3488780  60.1275010  59.5224390
  40.7940390  60.7766300  58.2723740  48.8045620  60.3501210  57.2168420
  48.2054510  61.0737010  57.0332040  49.3525230  60.2877990  56.4344870
  44.0147070  61.2423420  69.2838040  43.9190670  60.3018150  69.1338440
  44.8579050  61.4638490  68.8886110  47.4110490  58.9864750  59.2471700
  47.8040060  59.3036950  58.4340390  47.7727340  58.1076630  59.3616220
  39.1457610  57.6537090  67.4371820  38.7521000  58.5012300  67.6444600
  38.4576010  57.0163460  67.6280460  45.7202660  57.7372060  70.5068560
  45.0300980  57.5444260  71.1414650  46.4634960  58.0206700  71.0392860
  36.4474660  55.5765550  61.4701900  36.1587710  56.1468410  62.1826880
  37.1920420  55.0970000  61.8333130  36.6344890  59.5185670  52.6804620
  36.5519560  60.4616430  52.8219610  36.2827950  59.3760580  51.8016970
  47.9965630  61.5770500  63.3422480  47.2646750  62.0857310  63.6912580
  47.5989970  60.7600480  63.0411260  44.4343020  58.2524700  61.7474970
  44.4379080  57.8114650  60.8979510  45.3294140  58.5742030  61.8546790
  40.2845400  58.1351190  60.7069180  39.9445450  58.6126420  61.4636230
  39.5222720  57.6816310  60.3470280  44.4963170  59.2536780  54.7381730
  44.6175990  59.2123260  55.6867550  44.1111680  60.1160930  54.5828460
  43.5084670  61.5637920  54.1365030  42.9401570  61.1156170  53.5100940
  44.2173670  61.9230700  53.6030180  38.5853850  65.4649940  68.0131760
  38.2008640  64.8243610  68.6114720  38.8966040  66.1686060  68.5826490
  44.7350990  62.3126480  63.4940380  45.1021120  61.8385050  64.2401720
  44.5456050  63.1868050  63.8348720  37.5991480  57.0570170  59.6233850
  37.3138400  56.6925840  60.4612470  37.5370340  56.3250630  59.0096990
  42.5250360  61.3535120  65.8124590  42.2207430  62.2327100  66.0374950
  43.4796820  61.4134910  65.8482030  41.0532150  65.5596110  56.4091440
  40.2794410  65.0193730  56.2490160  41.7826780  65.0402720  56.0709200
  51.8120130  64.5561470  62.2017830  52.5319250  65.0516760  61.8113940
  51.6101950  63.8779360  61.5571700  47.1938930  64.6270530  68.0886830
  47.1276240  63.7066200  67.8344420  46.5644070  64.7245970  68.8031470
  49.9878460  60.3219080  54.6409380  50.8758080  60.6336310  54.4660720
  49.9583550  59.4491330  54.2489960  41.0969550  65.2276490  60.0470250
  41.6148220  64.4244750  59.9927140  40.6453570  65.1655630  60.8887080
  45.9839050  66.4942770  55.3197550  46.3254750  67.2385000  54.8240870
  45.1551760  66.8073890  55.6822380  38.5814090  62.1937860  66.9595950
  38.2229030  62.8591710  67.5469290  38.2868650  61.3621410  67.3308570
  41.7827210  62.6522100  69.8435500  41.4827350  62.7979280  68.9463320
  42.5538450  62.0927390  69.7508890  47.1255660  67.4491100  67.8390630
  47.1400200  66.5172060  67.6209540  46.4180760  67.5350860  68.4780400
  52.2592730  61.6330920  54.1089240  52.1756450  62.0645140  53.2585680
  52.9786920  62.0929270  54.5416060  53.3366870  64.0898440  67.1859210
  52.6115060  64.6827220  66.9888600  53.8642330  64.0821980  66.3872580
  48.8666460  65.8158610  60.6843060  49.2190280  65.2186740  60.0244430
  47.9828790  65.4902840  60.8551310  44.9529740  66.5756300  58.0913470
  45.6400870  67.1225510  58.4721060  44.1662160  67.1197030  58.1263080
  37.0922140  62.1929120  53.5830550  37.9616990  62.4753920  53.8666470
  36.6012460  63.0064990  53.4679360  44.2556950  63.5802330  57.7038830
  44.7119730  64.3907580  57.9299020  43.9045160  63.2625470  58.5357320
  51.6777360  67.3789640  53.3747720  51.4514940  66.6620080  53.9672360
  51.2873560  67.1302080  52.5369470  37.1562660  55.6831100  67.6368050
  36.4421180  55.8828020  68.2420660  37.5757700  54.9070670  68.0082850
  51.2593610  65.2961580  55.0361880  50.9715310  65.7574270  55.8239760
  52.0545780  64.8359350  55.3046100  39.0768650  64.0102590  55.7112610
  38.4696600  64.7501490  55.7207910  39.5518000  64.1001950  54.8850810
  48.6501440  58.1753410  65.3869500  49.0182260  57.3548620  65.7149070
  47.7899640  58.2355300  65.8025150  52.0163470  57.1310350  56.1957060
  51.3876630  57.2356020  55.4815290  51.5215390  57.3507130  56.9850940
  43.9847500  59.4096300  57.6114940  43.2763650  59.8782640  58.0528550
  44.2691980  58.7518310  58.2460130  45.6103430  60.8293000  65.6107470
  46.1088680  61.3038820  66.2759320  45.7526380  59.9056520  65.8177500
  42.1882520  57.7181380  54.9865650  43.0373050  58.1551530  54.9205840
  41.8213790  58.0301640  55.8137710  52.8170290  57.0460960  66.4535860
  52.3143890  57.7866360  66.7929670  53.6326950  57.4344960  66.1372650
  51.1092300  62.2894140  59.8997220  50.1682440  62.3044370  60.0744910
  51.4236370  61.5030100  60.3457520  41.0873940  63.9713740  53.4601180
  41.8537210  63.8595100  54.0226610  41.1648630  63.2751710  52.8077950
  39.7820700  61.4038810  54.1434070  39.8624290  60.4566320  54.2551470
  40.6740450  61.7345690  54.2494730  48.4258320  66.8460140  70.3829600
  47.8196480  66.8691740  69.6425350  48.1212430  66.1143180  70.9196850
  37.3091500  63.2253730  69.3790240  37.8130520  62.6461010  69.9506470
  36.5698920  63.5093960  69.9166610  44.2115120  65.9467920  52.9336530
  44.1065760  65.3320270  53.6597910  44.0439340  65.4233810  52.1499540
  44.3629440  64.6324720  68.9125760  43.5975110  65.2009720  68.8280430
  44.5445400  64.3400930  68.0193990  47.4517850  65.0087950  53.5378520
  46.9027950  65.4557250  54.1821260  48.0737110  64.5037200  54.0616190
  51.5052790  66.3630050  69.4700780  52.2462260  66.7005810  68.9668240
  50.7425470  66.5322110  68.9170550  39.3414580  61.3683320  70.2740310
  39.3819920  61.0697190  71.1825540  40.1960080  61.7690930  70.1147830
  43.1192970  63.9678870  55.4343820  43.5409390  63.8018740  56.2775210
  43.2443810  63.1579100  54.9398960  41.2820390  59.9475420  68.2414800
  40.7516850  59.4566370  67.6138140  41.9508460  60.3759620  67.7072730
  45.6320610  62.9916480  52.6820920  46.1526270  62.2765500  52.3162070
  46.2789010  63.6302350  52.9821430  50.1798450  64.4144880  68.0055990
  50.5939470  64.5689960  68.8546410  49.2449450  64.5400100  68.1681770
  50.6520620  61.7541040  70.0095140  51.2341390  60.9993360  69.9215620
  50.8282390  62.2848480  69.2326620  41.7692690  56.9137790  68.3212090
  41.6749560  56.2958540  67.5962960  41.1890080  57.6404080  68.0942000
  44.9413680  64.3665360  65.9751920  45.3601790  65.2098090  65.8028160
  44.0222310  64.5037400  65.7458700  47.2777580  62.0981540  67.3589760
  47.3973790  61.5022680  68.0984600  48.1371580  62.1351230  66.9391060
  49.6165480  62.6518730  65.9352270  49.0900700  63.1761350  65.3317410
  49.9596820  63.2846120  66.5662000  42.0151870  60.0412100  52.3801980
  41.8140930  59.1779460  52.7415320  41.8443920  59.9545460  51.4423580
  44.0446350  58.6402890  68.6165580  44.6346040  58.3318740  69.3043400
  43.2266590  58.1682640  68.7725480  48.8639780  58.2568700  68.8498600
  48.1755300  57.5950240  68.7848590  49.5845800  57.8106970  69.2947060
  39.8364800  66.4455140  53.2009660  40.2739670  66.9884810  53.8567240
  40.3212530  65.6202090  53.2106000  41.6472520  67.5653180  58.3131890
  41.3468060  67.4418150  59.2135800  41.5410010  66.7061770  57.9047620
  53.8720900  64.0897060  55.5192770  54.6339810  64.6593710  55.6252460
  53.8875270  63.5224260  56.2901080  37.3725240  62.6134990  59.7500430
  36.7174080  62.3446630  59.1060130  38.2103190  62.5039470  59.3002410
  54.8780870  64.9447160  60.3634700  55.2489700  64.1614480  59.9570670
  55.5182800  65.6336260  60.1852000  51.8614630  66.3283740  65.7765020
  51.0474470  66.7580900  66.0390810  52.2688830  66.9402150  65.1634070
  53.9240070  64.3831430  52.6765290  54.1988910  65.2910310  52.5484510
  53.7350810  64.3193960  53.6127280  50.3215680  57.4076280  53.9718920
  50.7400560  57.2207260  53.1315580  50.0151740  56.5555330  54.2821850
  53.8205410  62.3200420  57.6694720  53.4449010  61.5528350  57.2376010
  53.0908530  62.7023120  58.1569650  38.4101170  62.9987560  64.2903770
  38.7774210  62.9114960  65.1699790  37.8411990  62.2354110  64.1910630
  53.2105030  61.4671940  67.3034240  52.9791120  61.2384690  66.4032190
  53.4709580  62.3871490  67.2579130  37.9617170  59.9096650  68.1962190
  37.0673220  59.8763410  68.5355900  38.5014720  60.1083440  68.9613440
  51.6493100  56.6928370  70.0813940  52.5263280  56.7011770  70.4647940
  51.6613940  55.9559210  69.4706290  36.5863320  59.8233920  55.6925760
  35.6827400  60.0864120  55.5177420  37.0703940  60.0945090  54.9125720
  53.0956370  60.5457910  60.9701960  53.6193850  60.0520560  60.3392130
  53.6815790  60.6808270  61.7149530  53.2746090  60.6297780  64.4921510
  52.3248800  60.5961320  64.6066500  53.4559100  61.5397890  64.2571280
  39.1290530  58.8799460  53.6020140  39.8382230  58.4582680  53.1167420
  38.4130470  58.9474690  52.9703490  52.5856340  59.8031260  56.9094370
  53.0815460  59.5702130  57.6943250  52.3872410  58.9643100  56.4932010
  38.4656880  54.1844980  62.5445410  39.1133070  53.6342360  62.1040570
  38.8858720  54.4388130  63.3661220  54.0143500  58.4392210  59.4432050
  53.9042780  58.2848250  60.3814320  54.7751090  57.9113150  59.2007460
  54.9033770  56.2700130  52.6838190  55.8283080  56.1381310  52.4756480
  54.8809560  56.3492950  53.6374640  54.9772260  57.0410790  55.3094900
  54.1823760  56.9755910  55.8387810  55.1815540  57.9761430  55.2980250
  38.2188880  54.3400650  65.2870730  37.8703700  54.7964470  66.0528910
  37.8876580  53.4457780  65.3693160  45.7313700  55.5312530  68.8090150
  45.6702590  56.1234360  69.5585560  46.6714080  55.4238490  68.6640410
  38.8909520  53.8676850  68.5621500  39.4392510  53.6864900  67.7987610
  38.9564830  53.0770960  69.0977810  52.3884920  54.1535330  55.7384020
  52.5835550  55.0518780  56.0051450  51.6014790  53.9222410  56.2316970
  42.8930080  54.5155220  70.2658210  42.6114350  55.0188820  69.5019030
  43.2749780  53.7176970  69.9000340  48.4003690  61.9501270  41.2073420
  48.3197740  61.0355880  40.9365130  47.9868110  62.4468340  40.5013130
  46.5321730  63.7280290  43.0882690  45.7563830  63.2480730  43.3781260
  47.1834660  63.0485940  42.9138850  40.5487560  64.0400100  43.9658450
  39.7172440  63.7848810  44.3654960  41.1568540  64.1110870  44.7016370
  38.9579510  59.0001990  37.7500840  38.0696210  59.3417960  37.6480720
  39.2420700  58.8002310  36.8581670  36.9212520  61.6007640  43.6340540
  37.4928630  60.8329840  43.6344180  36.9214060  61.8996400  42.7247150
  45.9730720  66.4037480  43.0952850  45.9039000  65.4627420  42.9341980
  46.7350580  66.4938890  43.6675420  47.0035890  59.2107860  43.3221780
  47.3800710  58.3379740  43.2095450  46.9055400  59.5466560  42.4312220
  41.1340900  57.5833490  38.7839220  41.2407650  58.4837220  39.0907980
  40.2233260  57.5351460  38.4933870  50.7860010  56.7058300  40.2550120
  51.6069630  56.2154870  40.2975600  50.8194090  57.2955960  41.0081960
  38.7824060  59.5052500  44.0291810  39.4634170  59.7690870  44.6479210
  38.4672110  58.6653370  44.3629820  42.9748630  60.5519860  43.1164400
  43.4826850  61.0500830  43.7569420  43.5061870  59.7755060  42.9403760
  55.0759560  58.7225050  46.8193750  54.3711730  59.1106760  46.3008860
  55.3417480  59.4175340  47.4214680  41.2584730  55.1918420  47.3827820
  41.2603170  55.7090810  46.5773720  40.4289040  54.7148600  47.3597750
  47.6455820  65.3037730  38.8817720  47.0273090  65.7687180  38.3180440
  48.1579070  65.9965210  39.2987230  42.5087580  64.8313600  45.5601320
  42.1756960  65.4582520  46.2022390  42.6854260  65.3575480  44.7802990
  51.0221490  58.6458680  43.0277660  50.3177060  58.9343570  43.6080770
  51.3833650  59.4558790  42.6677220  40.9400060  56.9028380  45.3898270
  41.2816870  57.7470430  45.0952140  40.0015870  57.0512120  45.5063610
  41.7206680  66.7994400  47.3750500  42.3380680  67.4745480  47.0934950
  40.8599800  67.2082380  47.2838000  37.0139020  65.9894260  36.2557350
  36.6367000  66.4781360  35.5242250  37.2712090  66.6619540  36.8863880
  54.0908410  58.0913470  43.4186870  53.1433320  58.1252450  43.5502300
  54.4158400  58.9052420  43.8036230  44.6227950  54.3910650  41.7142860
  44.9302930  53.8357540  40.9978360  43.6928650  54.5255110  41.5315850
  51.4688430  66.8294160  39.0940490  51.3584760  65.8868490  39.2189910
  51.4656680  67.1909800  39.9803250  49.5728450  65.0107780  45.3332930
  49.9897240  64.7967890  44.4986390  50.2968270  65.2680570  45.9041550
  47.0108710  62.4559480  38.4502980  46.0837990  62.3896860  38.6791450
  47.1633530  63.3939610  38.3358220  46.9977790  58.7276480  35.4470140
  46.0581460  58.8890440  35.5322600  47.3161050  59.4462160  34.9006130
  53.5190550  63.4095000  45.4249170  52.6909180  63.4788090  44.9499300
  54.1141030  63.9949310  44.9565000  51.0406000  64.0179780  38.9538230
  50.4218420  63.6799330  38.3064530  51.0230450  63.3739540  39.6617420
  50.4832560  60.1964320  46.3704040  50.0703740  61.0218030  46.6244030
  49.7508510  59.6109360  46.1780400  42.6165350  62.9824220  41.2322710
  42.2122350  62.2701470  40.7368610  42.7028470  62.6377460  42.1210750
  43.0847050  66.6691780  43.3961920  42.7875340  66.0637250  42.7169700
  44.0346870  66.7069090  43.2851280  41.3293970  59.7567430  45.0121750
  41.8808560  59.8662770  44.2375000  41.8437480  60.1305030  45.7276980
  42.1765480  66.4073470  50.0469720  41.2794010  66.6313440  50.2943120
  42.2018350  66.5308410  49.0981120  49.2170700  63.2566590  35.9610980
  49.6563980  62.4189020  35.8148800  49.9299120  63.8895990  36.0475120
  41.0036700  63.2786790  48.6227090  40.8644470  64.1509590  48.9914490
  40.1218060  62.9359600  48.4775030  52.7987840  54.5109400  34.2752020
  52.4860500  54.6036230  35.1751090  53.5600310  55.0890430  34.2249450
  39.3169980  61.8769200  38.7329360  39.1967580  62.6031290  38.1210630
  39.0070870  61.1072110  38.2557270  36.9555350  65.0484340  44.5398000
  37.0335770  65.1833110  43.5953720  37.5697030  64.3400230  44.7326120
  38.2002980  66.7484530  40.9504180  37.7931060  66.8899120  40.0957780
  39.0915990  66.4644690  40.7475390  54.1565120  67.1948440  49.2876420
  54.2828180  66.9560320  48.3693600  54.1986500  66.3632980  49.7598500
  54.0089130  59.2480900  50.2526160  53.3933400  59.7560570  49.7241620
  53.6885550  58.3479230  50.1952100  37.0114870  66.0898510  47.0792460
  37.1745910  65.6203870  46.2611830  37.4767320  65.5822070  47.7441300
  41.7833640  55.2204270  42.1153030  41.3401790  56.0013810  41.7837550
  42.3418630  55.5434160  42.8223970  46.0703450  58.0872790  47.7188350
  45.6082820  58.2955810  48.5308290  45.6681560  57.2732140  47.4159020
  51.0707960  59.3081740  48.8485010  50.2201550  59.0087490  49.1694080
  50.9109750  59.5523750  47.9368830  48.1657670  60.8083490  50.9483800
  48.4911080  59.9747240  50.6086030  48.9538000  61.3312010  51.0962130
  44.8992460  54.8414970  36.9958860  44.2746640  54.8374840  37.7212170
  44.8122580  53.9745930  36.5994830  43.8209540  55.7651600  43.9742630
  44.1181870  56.6714430  43.8934650  44.3695100  55.2770380  43.3602200
  41.5747860  60.3437840  39.8434280  41.3488780  60.1275010  40.7480900
  40.7940390  60.7766300  39.4980250  48.8045620  60.3501210  38.4424930
  48.2054510  61.0737010  38.2588550  49.3525230  60.2877990  37.6601380
  44.0147070  61.2423420  50.5094550  43.9190670  60.3018150  50.3594950
  44.8579050  61.4638490  50.1142620  47.4110490  58.9864750  40.4728210
  47.8040060  59.3036950  39.6596900  47.7727340  58.1076630  40.5872730
  39.1457610  57.6537090  48.6628330  38.7521000  58.5012300  48.8701110
  38.4576010  57.0163460  48.8536970  36.4474660  55.5765550  42.6958410
  36.1587710  56.1468410  43.4083390  37.1920420  55.0970000  43.0589640
  36.6344890  59.5185670  33.9061130  36.5519560  60.4616430  34.0476120
  36.2827950  59.3760580  33.0273480  47.9965630  61.5770500  44.5678990
  47.2646750  62.0857310  44.9169090  47.5989970  60.7600480  44.2667770
  44.4343020  58.2524700  42.9731480  44.4379080  57.8114650  42.1236020
  45.3294140  58.5742030  43.0803300  40.2845400  58.1351190  41.9325690
  39.9445450  58.6126420  42.6892740  39.5222720  57.6816310  41.5726790
  44.4963170  59.2536780  35.9638240  44.6175990  59.2123260  36.9124060
  44.1111680  60.1160930  35.8084970  48.4591540  57.0304180  43.9801930
  48.4764280  57.4812830  44.8243780  48.2107120  56.1309820  44.1935370
  43.5084670  61.5637920  35.3621540  42.9401570  61.1156170  34.7357450
  44.2173670  61.9230700  34.8286690  51.8862290  54.4436360  49.8188310
  52.2108060  53.7126020  50.3446290  51.9218800  54.1250000  48.9169300
  38.5853850  65.4649940  49.2388270  38.2008640  64.8243610  49.8371230
  38.8966040  66.1686060  49.8083000  44.7350990  62.3126480  44.7196890
  45.1021120  61.8385050  45.4658230  44.5456050  63.1868050  45.0605230
  37.5991480  57.0570170  40.8490360  37.3138400  56.6925840  41.6868980
  37.5370340  56.3250630  40.2353500  42.5250360  61.3535120  47.0381100
  42.2207430  62.2327100  47.2631460  43.4796820  61.4134910  47.0738540
  41.0532150  65.5596110  37.6347950  40.2794410  65.0193730  37.4746670
  41.7826780  65.0402720  37.2965710  51.8120130  64.5561470  43.4274340
  52.5319250  65.0516760  43.0370450  51.6101950  63.8779360  42.7828210
  47.2730070  55.9499430  37.5703730  46.4594680  55.4512600  37.4949040
  47.0792020  56.7897680  37.1540080  47.1938930  64.6270530  49.3143340
  47.1276240  63.7066200  49.0600930  46.5644070  64.7245970  50.0287980
  49.9878460  60.3219080  35.8665890  50.8758080  60.6336310  35.6917230
  49.9583550  59.4491330  35.4746470  41.0969550  65.2276490  41.2726760
  41.6148220  64.4244750  41.2183650  40.6453570  65.1655630  42.1143590
  45.9839050  66.4942770  36.5454060  46.3254750  67.2385000  36.0497380
  45.1551760  66.8073890  36.9078890  38.5814090  62.1937860  48.1852460
  38.2229030  62.8591710  48.7725800  38.2868650  61.3621410  48.5565080
  41.7827210  62.6522100  51.0692010  41.4827350  62.7979280  50.1719830
  42.5538450  62.0927390  50.9765400  47.1255660  67.4491100  49.0647140
  47.1400200  66.5172060  48.8466050  46.4180760  67.5350860  49.7036910
  52.2592730  61.6330920  35.3345750  52.1756450  62.0645140  34.4842190
  52.9786920  62.0929270  35.7672570  53.3366870  64.0898440  48.4115720
  52.6115060  64.6827220  48.2145110  53.8642330  64.0821980  47.6129090
  48.8666460  65.8158610  41.9099570  49.2190280  65.2186740  41.2500940
  47.9828790  65.4902840  42.0807820  44.9529740  66.5756300  39.3169980
  45.6400870  67.1225510  39.6977570  44.1662160  67.1197030  39.3519590
  37.0922140  62.1929120  34.8087060  37.9616990  62.4753920  35.0922980
  36.6012460  63.0064990  34.6935870  44.2556950  63.5802330  38.9295340
  44.7119730  64.3907580  39.1555530  43.9045160  63.2625470  39.7613830
  51.6777360  67.3789640  34.6004230  51.4514940  66.6620080  35.1928870
  51.2873560  67.1302080  33.7625980  51.2593610  65.2961580  36.2618390
  50.9715310  65.7574270  37.0496270  52.0545780  64.8359350  36.5302610
  39.0768650  64.0102590  36.9369120  38.4696600  64.7501490  36.9464420
  39.5518000  64.1001950  36.1107320  48.6501440  58.1753410  46.6126010
  49.0182260  57.3548620  46.9405580  47.7899640  58.2355300  47.0281660
  52.0163470  57.1310350  37.4213570  51.3876630  57.2356020  36.7071800
  51.5215390  57.3507130  38.2107450  43.9847500  59.4096300  38.8371450
  43.2763650  59.8782640  39.2785060  44.2691980  58.7518310  39.4716640
  45.6103430  60.8293000  46.8363980  46.1088680  61.3038820  47.5015830
  45.7526380  59.9056520  47.0434010  48.0162930  56.1346960  40.2767240
  47.8930710  56.1533090  39.3276750  48.9647490  56.1825900  40.3965640
  42.1882520  57.7181380  36.2122160  43.0373050  58.1551530  36.1462350
  41.8213790  58.0301640  37.0394220  52.8170290  57.0460960  47.6792370
  52.3143890  57.7866360  48.0186180  53.6326950  57.4344960  47.3629160
  51.1092300  62.2894140  41.1253730  50.1682440  62.3044370  41.3001420
  51.4236370  61.5030100  41.5714030  41.0873940  63.9713740  34.6857690
  41.8537210  63.8595100  35.2483120  41.1648630  63.2751710  34.0334460
  39.7820700  61.4038810  35.3690580  39.8624290  60.4566320  35.4807980
  40.6740450  61.7345690  35.4751240  48.4258320  66.8460140  51.6086110
  47.8196480  66.8691740  50.8681860  48.1212430  66.1143180  52.1453360
  37.3091500  63.2253730  50.6046750  37.8130520  62.6461010  51.1762980
  36.5698920  63.5093960  51.1423120  44.2115120  65.9467920  34.1593040
  44.1065760  65.3320270  34.8854420  44.0439340  65.4233810  33.3756050
  44.3629440  64.6324720  50.1382270  43.5975110  65.2009720  50.0536940
  44.5445400  64.3400930  49.2450500  47.4517850  65.0087950  34.7635030
  46.9027950  65.4557250  35.4077770  48.0737110  64.5037200  35.2872700
  51.5052790  66.3630050  50.6957290  52.2462260  66.7005810  50.1924750
  50.7425470  66.5322110  50.1427060  39.3414580  61.3683320  51.4996820
  39.3819920  61.0697190  52.4082050  40.1960080  61.7690930  51.3404340
  43.1192970  63.9678870  36.6600330  43.5409390  63.8018740  37.5031720
  43.2443810  63.1579100  36.1655470  41.2820390  59.9475420  49.4671310
  40.7516850  59.4566370  48.8394650  41.9508460  60.3759620  48.9329240
  45.6320610  62.9916480  33.9077430  46.1526270  62.2765500  33.5418580
  46.2789010  63.6302350  34.2077940  50.1798450  64.4144880  49.2312500
  50.5939470  64.5689960  50.0802920  49.2449450  64.5400100  49.3938280
  50.6520620  61.7541040  51.2351650  51.2341390  60.9993360  51.1472130
  50.8282390  62.2848480  50.4583130  41.7692690  56.9137790  49.5468600
  41.6749560  56.2958540  48.8219470  41.1890080  57.6404080  49.3198510
  44.5354130  55.4711030  46.5795990  44.0871430  55.4935290  45.7341540
  43.9019330  55.0730050  47.1766290  44.9413680  64.3665360  47.2008430
  45.3601790  65.2098090  47.0284670  44.0222310  64.5037400  46.9715210
  47.2777580  62.0981540  48.5846270  47.3973790  61.5022680  49.3241110
  48.1371580  62.1351230  48.1647570  49.6165480  62.6518730  47.1608780
  49.0900700  63.1761350  46.5573920  49.9596820  63.2846120  47.7918510
  42.0151870  60.0412100  33.6058490  41.8140930  59.1779460  33.9671830
  41.8443920  59.9545460  32.6680090  44.0446350  58.6402890  49.8422090
  44.6346040  58.3318740  50.5299910  43.2266590  58.1682640  49.9981990
  48.8639780  58.2568700  50.0755110  48.1755300  57.5950240  50.0105100
  49.5845800  57.8106970  50.5203570  49.4940180  54.8520330  36.1345370
  49.7742470  54.0088230  36.4904790  48.7205910  55.0843440  36.6484120
  40.8134670  57.1412720  33.5936370  41.1160570  57.1480150  32.6855520
  41.5529260  56.7910580  34.0904030  44.0319600  56.0847340  34.5792570
  43.6841600  55.4071330  33.9995020  44.2332370  55.6236850  35.3935960
  39.8364800  66.4455140  34.4266170  40.2739670  66.9884810  35.0823750
  40.3212530  65.6202090  34.4362510  41.6472520  67.5653180  39.5388400
  41.3468060  67.4418150  40.4392310  41.5410010  66.7061770  39.1304130
  53.8720900  64.0897060  36.7449280  54.6339810  64.6593710  36.8508970
  53.8875270  63.5224260  37.5157590  37.3725240  62.6134990  40.9756940
  36.7174080  62.3446630  40.3316640  38.2103190  62.5039470  40.5258920
  54.8780870  64.9447160  41.5891210  55.2489700  64.1614480  41.1827180
  55.5182800  65.6336260  41.4108510  51.8614630  66.3283740  47.0021530
  51.0474470  66.7580900  47.2647320  52.2688830  66.9402150  46.3890580
  53.9240070  64.3831430  33.9021800  54.1988910  65.2910310  33.7741020
  53.7350810  64.3193960  34.8383790  50.3215680  57.4076280  35.1975430
  50.7400560  57.2207260  34.3572090  50.0151740  56.5555330  35.5078360
  53.8205410  62.3200420  38.8951230  53.4449010  61.5528350  38.4632520
  53.0908530  62.7023120  39.3826160  38.4101170  62.9987560  45.5160280
  38.7774210  62.9114960  46.3956300  37.8411990  62.2354110  45.4167140
  53.2105030  61.4671940  48.5290750  52.9791120  61.2384690  47.6288700
  53.4709580  62.3871490  48.4835640  37.9617170  59.9096650  49.4218700
  37.0673220  59.8763410  49.7612410  38.5014720  60.1083440  50.1869950
  51.6493100  56.6928370  51.3070450  52.5263280  56.7011770  51.6904450
  51.6613940  55.9559210  50.6962800  36.5863320  59.8233920  36.9182270
  35.6827400  60.0864120  36.7433930  37.0703940  60.0945090  36.1382230
  53.0956370  60.5457910  42.1958470  53.6193850  60.0520560  41.5648640
  53.6815790  60.6808270  42.9406040  53.2746090  60.6297780  45.7178020
  52.3248800  60.5961320  45.8323010  53.4559100  61.5397890  45.4827790
  39.1290530  58.8799460  34.8276650  39.8382230  58.4582680  34.3423930
  38.4130470  58.9474690  34.1960000  38.7764690  54.9338790  33.8679300
  39.4992820  55.4747730  34.1860520  39.0489210  54.6602210  32.9920840
  52.5856340  59.8031260  38.1350880  53.0815460  59.5702130  38.9199760
  52.3872410  58.9643100  37.7188520  54.0143500  58.4392210  40.6688560
  53.9042780  58.2848250  41.6070830  54.7751090  57.9113150  40.4263970
  52.3609220  54.3786340  47.1271560  52.9981440  54.9920480  47.4930750
  52.5084110  54.4147000  46.1820790  54.9033770  56.2700130  33.9094700
  55.8283080  56.1381310  33.7012990  54.8809560  56.3492950  34.8631150
  54.9772260  57.0410790  36.5351410  54.1823760  56.9755910  37.0644320
  55.1815540  57.9761430  36.5236760  49.1096300  53.7514730  46.0008240
  48.2356140  54.0849840  45.7981170  49.0007050  53.2787910  46.8260110
  50.0168280  55.9585600  47.3849960  49.6881640  55.1437360  47.0051690
  50.9650580  55.9155410  47.2615650  46.8571120  54.6684570  44.9401150
  46.0742910  55.1430070  45.2197910  46.5634050  53.7639400  44.8314330
  51.4092190  55.3707670  42.9850240  51.8500280  55.3152770  42.1371840
  51.1399780  56.2865680  43.0560420  53.2730760  55.0022910  40.9959060
  53.2119160  54.0584130  40.8490080  54.0522790  55.1103000  41.5412520
  38.2011530  54.9732050  37.4614870  38.9590890  55.0860930  36.8878900
  37.7388700  55.8101250  37.4158300  44.7425340  57.0871320  40.4517180
  43.9299850  56.7128210  40.1113060  45.2466980  56.3316400  40.7538370
  49.2450320  53.7513770  41.6900250  49.8479690  54.3233980  42.1648770
  48.5043310  54.3153210  41.4674150  52.3884920  54.1535330  36.9640530
  52.5835550  55.0518780  37.2307960  51.6014790  53.9222410  37.4573480
  40.5736680  55.4996100  36.0016840  41.1029440  54.7125900  35.8724790
  41.2065000  56.1787290  36.2352370  42.7674520  55.2371240  39.0562230
  42.1377260  54.5358550  39.2232360  42.2279660  55.9975370  38.8395390
  49.4945540  53.9308800  52.0695190  49.3810990  54.2503410  52.9646710
  50.3115280  54.3321310  51.7732470  48.4003690  61.9501270  22.4329930
  48.3197740  61.0355880  22.1621640  47.9868110  62.4468340  21.7269640
  46.5321730  63.7280290  24.3139200  45.7563830  63.2480730  24.6037770
  47.1834660  63.0485940  24.1395360  40.5487560  64.0400100  25.1914960
  39.7172440  63.7848810  25.5911470  41.1568540  64.1110870  25.9272880
  38.9579510  59.0001990  18.9757350  38.0696210  59.3417960  18.8737230
  39.2420700  58.8002310  18.0838180  36.9212520  61.6007640  24.8597050
  37.4928630  60.8329840  24.8600690  36.9214060  61.8996400  23.9503660
  45.9730720  66.4037480  24.3209360  45.9039000  65.4627420  24.1598490
  46.7350580  66.4938890  24.8931930  38.1637390  57.0092000  26.6465980
  37.9840230  56.1117750  26.9268740  37.7617470  57.5563870  27.3212930
  47.0035890  59.2107860  24.5478290  47.3800710  58.3379740  24.4351960
  46.9055400  59.5466560  23.6568730  41.1340900  57.5833490  20.0095730
  41.2407650  58.4837220  20.3164490  40.2233260  57.5351460  19.7190380
  50.7860010  56.7058300  21.4806630  51.6069630  56.2154870  21.5232110
  50.8194090  57.2955960  22.2338470  38.7824060  59.5052500  25.2548320
  39.4634170  59.7690870  25.8735720  38.4672110  58.6653370  25.5886330
  42.9748630  60.5519860  24.3420910  43.4826850  61.0500830  24.9825930
  43.5061870  59.7755060  24.1660270  55.0759560  58.7225050  28.0450260
  54.3711730  59.1106760  27.5265370  55.3417480  59.4175340  28.6471190
  41.2584730  55.1918420  28.6084330  41.2603170  55.7090810  27.8030230
  40.4289040  54.7148600  28.5854260  47.6455820  65.3037730  20.1074230
  47.0273090  65.7687180  19.5436950  48.1579070  65.9965210  20.5243740
  42.5087580  64.8313600  26.7857830  42.1756960  65.4582520  27.4278900
  42.6854260  65.3575480  26.0059500  51.0221490  58.6458680  24.2534170
  50.3177060  58.9343570  24.8337280  51.3833650  59.4558790  23.8933730
  40.9400060  56.9028380  26.6154780  41.2816870  57.7470430  26.3208650
  40.0015870  57.0512120  26.7320120  41.7206680  66.7994400  28.6007010
  42.3380680  67.4745480  28.3191460  40.8599800  67.2082380  28.5094510
  37.0139020  65.9894260  17.4813860  36.6367000  66.4781360  16.7498760
  37.2712090  66.6619540  18.1120390  54.0908410  58.0913470  24.6443380
  53.1433320  58.1252450  24.7758810  54.4158400  58.9052420  25.0292740
  44.6227950  54.3910650  22.9399370  44.9302930  53.8357540  22.2234870
  43.6928650  54.5255110  22.7572360  51.4688430  66.8294160  20.3197000
  51.3584760  65.8868490  20.4446420  51.4656680  67.1909800  21.2059760
  49.5728450  65.0107780  26.5589440  49.9897240  64.7967890  25.7242900
  50.2968270  65.2680570  27.1298060  47.0108710  62.4559480  19.6759490
  46.0837990  62.3896860  19.9047960  47.1633530  63.3939610  19.5614730
  46.9977790  58.7276480  16.6726650  46.0581460  58.8890440  16.7579110
  47.3161050  59.4462160  16.1262640  53.5190550  63.4095000  26.6505680
  52.6909180  63.4788090  26.1755810  54.1141030  63.9949310  26.1821510
  51.0406000  64.0179780  20.1794740  50.4218420  63.6799330  19.5321040
  51.0230450  63.3739540  20.8873930  50.4832560  60.1964320  27.5960550
  50.0703740  61.0218030  27.8500540  49.7508510  59.6109360  27.4036910
  42.6165350  62.9824220  22.4579220  42.2122350  62.2701470  21.9625120
  42.7028470  62.6377460  23.3467260  43.0847050  66.6691780  24.6218430
  42.7875340  66.0637250  23.9426210  44.0346870  66.7069090  24.5107790
  41.3293970  59.7567430  26.2378260  41.8808560  59.8662770  25.4631510
  41.8437480  60.1305030  26.9533490  42.1765480  66.4073470  31.2726230
  41.2794010  66.6313440  31.5199630  42.2018350  66.5308410  30.3237630
  49.2170700  63.2566590  17.1867490  49.6563980  62.4189020  17.0405310
  49.9299120  63.8895990  17.2731630  41.0036700  63.2786790  29.8483600
  40.8644470  64.1509590  30.2171000  40.1218060  62.9359600  29.7031540
  52.7987840  54.5109400  15.5008530  52.4860500  54.6036230  16.4007600
  53.5600310  55.0890430  15.4505960  39.3169980  61.8769200  19.9585870
  39.1967580  62.6031290  19.3467140  39.0070870  61.1072110  19.4813780
  36.9555350  65.0484340  25.7654510  37.0335770  65.1833110  24.8210230
  37.5697030  64.3400230  25.9582630  38.2002980  66.7484530  22.1760690
  37.7931060  66.8899120  21.3214290  39.0915990  66.4644690  21.9731900
  54.1565120  67.1948440  30.5132930  54.2828180  66.9560320  29.5950110
  54.1986500  66.3632980  30.9855010  54.0089130  59.2480900  31.4782670
  53.3933400  59.7560570  30.9498130  53.6885550  58.3479230  31.4208610
  37.0114870  66.0898510  28.3048970  37.1745910  65.6203870  27.4868340
  37.4767320  65.5822070  28.9697810  41.7833640  55.2204270  23.3409540
  41.3401790  56.0013810  23.0094060  42.3418630  55.5434160  24.0480480
  46.0703450  58.0872790  28.9444860  45.6082820  58.2955810  29.7564800
  45.6681560  57.2732140  28.6415530  51.0707960  59.3081740  30.0741520
  50.2201550  59.0087490  30.3950590  50.9109750  59.5523750  29.1625340
  48.1657670  60.8083490  32.1740310  48.4911080  59.9747240  31.8342540
  48.9538000  61.3312010  32.3218640  44.8992460  54.8414970  18.2215370
  44.2746640  54.8374840  18.9468680  44.8122580  53.9745930  17.8251340
  43.8209540  55.7651600  25.1999140  44.1181870  56.6714430  25.1191160
  44.3695100  55.2770380  24.5858710  41.5747860  60.3437840  21.0690790
  41.3488780  60.1275010  21.9737410  40.7940390  60.7766300  20.7236760
  48.8045620  60.3501210  19.6681440  48.2054510  61.0737010  19.4845060
  49.3525230  60.2877990  18.8857890  44.0147070  61.2423420  31.7351060
  43.9190670  60.3018150  31.5851460  44.8579050  61.4638490  31.3399130
  47.4110490  58.9864750  21.6984720  47.8040060  59.3036950  20.8853410
  47.7727340  58.1076630  21.8129240  39.1457610  57.6537090  29.8884840
  38.7521000  58.5012300  30.0957620  38.4576010  57.0163460  30.0793480
  45.7202660  57.7372060  32.9581580  45.0300980  57.5444260  33.5927670
  46.4634960  58.0206700  33.4905880  36.4474660  55.5765550  23.9214920
  36.1587710  56.1468410  24.6339900  37.1920420  55.0970000  24.2846150
  36.6344890  59.5185670  15.1317640  36.5519560  60.4616430  15.2732630
  36.2827950  59.3760580  14.2529990  47.9965630  61.5770500  25.7935500
  47.2646750  62.0857310  26.1425600  47.5989970  60.7600480  25.4924280
  44.4343020  58.2524700  24.1987990  44.4379080  57.8114650  23.3492530
  45.3294140  58.5742030  24.3059810  40.2845400  58.1351190  23.1582200
  39.9445450  58.6126420  23.9149250  39.5222720  57.6816310  22.7983300
  44.4963170  59.2536780  17.1894750  44.6175990  59.2123260  18.1380570
  44.1111680  60.1160930  17.0341480  48.4591540  57.0304180  25.2058440
  48.4764280  57.4812830  26.0500290  48.2107120  56.1309820  25.4191880
  43.5084670  61.5637920  16.5878050  42.9401570  61.1156170  15.9613960
  44.2173670  61.9230700  16.0543200  51.8862290  54.4436360  31.0444820
  52.2108060  53.7126020  31.5702800  51.9218800  54.1250000  30.1425810
  38.5853850  65.4649940  30.4644780  38.2008640  64.8243610  31.0627740
  38.8966040  66.1686060  31.0339510  44.7350990  62.3126480  25.9453400
  45.1021120  61.8385050  26.6914740  44.5456050  63.1868050  26.2861740
  37.5991480  57.0570170  22.0746870  37.3138400  56.6925840  22.9125490
  37.5370340  56.3250630  21.4610010  42.5250360  61.3535120  28.2637610
  42.2207430  62.2327100  28.4887970  43.4796820  61.4134910  28.2995050
  41.0532150  65.5596110  18.8604460  40.2794410  65.0193730  18.7003180
  41.7826780  65.0402720  18.5222220  51.8120130  64.5561470  24.6530850
  52.5319250  65.0516760  24.2626960  51.6101950  63.8779360  24.0084720
  47.2730070  55.9499430  18.7960240  46.4594680  55.4512600  18.7205550
  47.0792020  56.7897680  18.3796590  47.1938930  64.6270530  30.5399850
  47.1276240  63.7066200  30.2857440  46.5644070  64.7245970  31.2544490
  49.9878460  60.3219080  17.0922400  50.8758080  60.6336310  16.9173740
  49.9583550  59.4491330  16.7002980  41.0969550  65.2276490  22.4983270
  41.6148220  64.4244750  22.4440160  40.6453570  65.1655630  23.3400100
  45.9839050  66.4942770  17.7710570  46.3254750  67.2385000  17.2753890
  45.1551760  66.8073890  18.1335400  38.5814090  62.1937860  29.4108970
  38.2229030  62.8591710  29.9982310  38.2868650  61.3621410  29.7821590
  41.7827210  62.6522100  32.2948520  41.4827350  62.7979280  31.3976340
  42.5538450  62.0927390  32.2021910  47.1255660  67.4491100  30.2903650
  47.1400200  66.5172060  30.0722560  46.4180760  67.5350860  30.9293420
  52.2592730  61.6330920  16.5602260  52.1756450  62.0645140  15.7098700
  52.9786920  62.0929270  16.9929080  53.3366870  64.0898440  29.6372230
  52.6115060  64.6827220  29.4401620  53.8642330  64.0821980  28.8385600
  48.8666460  65.8158610  23.1356080  49.2190280  65.2186740  22.4757450
  47.9828790  65.4902840  23.3064330  44.9529740  66.5756300  20.5426490
  45.6400870  67.1225510  20.9234080  44.1662160  67.1197030  20.5776100
  37.0922140  62.1929120  16.0343570  37.9616990  62.4753920  16.3179490
  36.6012460  63.0064990  15.9192380  44.2556950  63.5802330  20.1551850
  44.7119730  64.3907580  20.3812040  43.9045160  63.2625470  20.9870340
  40.1568730  53.9239980  20.6274370  40.0283360  53.9157880  21.5759290
  39.3330750  54.2623070  20.2765380  51.6777360  67.3789640  15.8260740
  51.4514940  66.6620080  16.4185380  51.2873560  67.1302080  14.9882490
  37.1562660  55.6831100  30.0881070  36.4421180  55.8828020  30.6933680
  37.5757700  54.9070670  30.4595870  51.2593610  65.2961580  17.4874900
  50.9715310  65.7574270  18.2752780  52.0545780  64.8359350  17.7559120
  39.0768650  64.0102590  18.1625630  38.4696600  64.7501490  18.1720930
  39.5518000  64.1001950  17.3363830  48.6501440  58.1753410  27.8382520
  49.0182260  57.3548620  28.1662090  47.7899640  58.2355300  28.2538170
  52.0163470  57.1310350  18.6470080  51.3876630  57.2356020  17.9328310
  51.5215390  57.3507130  19.4363960  43.9847500  59.4096300  20.0627960
  43.2763650  59.8782640  20.5041570  44.2691980  58.7518310  20.6973150
  45.6103430  60.8293000  28.0620490  46.1088680  61.3038820  28.7272340
  45.7526380  59.9056520  28.2690520  48.0162930  56.1346960  21.5023750
  47.8930710  56.1533090  20.5533260  48.9647490  56.1825900  21.6222150
  42.1882520  57.7181380  17.4378670  43.0373050  58.1551530  17.3718860
  41.8213790  58.0301640  18.2650730  52.8170290  57.0460960  28.9048880
  52.3143890  57.7866360  29.2442690  53.6326950  57.4344960  28.5885670
  51.1092300  62.2894140  22.3510240  50.1682440  62.3044370  22.5257930
  51.4236370  61.5030100  22.7970540  41.0873940  63.9713740  15.9114200
  41.8537210  63.8595100  16.4739630  41.1648630  63.2751710  15.2590970
  39.7820700  61.4038810  16.5947090  39.8624290  60.4566320  16.7064490
  40.6740450  61.7345690  16.7007750  48.4258320  66.8460140  32.8342620
  47.8196480  66.8691740  32.0938370  48.1212430  66.1143180  33.3709870
  37.3091500  63.2253730  31.8303260  37.8130520  62.6461010  32.4019490
  36.5698920  63.5093960  32.3679630  44.2115120  65.9467920  15.3849550
  44.1065760  65.3320270  16.1110930  44.0439340  65.4233810  14.6012560
  44.3629440  64.6324720  31.3638780  43.5975110  65.2009720  31.2793450
  44.5445400  64.3400930  30.4707010  47.4517850  65.0087950  15.9891540
  46.9027950  65.4557250  16.6334280  48.0737110  64.5037200  16.5129210
  51.5052790  66.3630050  31.9213800  52.2462260  66.7005810  31.4181260
  50.7425470  66.5322110  31.3683570  39.3414580  61.3683320  32.7253330
  39.3819920  61.0697190  33.6338560  40.1960080  61.7690930  32.5660850
  43.1192970  63.9678870  17.8856840  43.5409390  63.8018740  18.7288230
  43.2443810  63.1579100  17.3911980  41.2820390  59.9475420  30.6927820
  40.7516850  59.4566370  30.0651160  41.9508460  60.3759620  30.1585750
  45.6320610  62.9916480  15.1333940  46.1526270  62.2765500  14.7675090
  46.2789010  63.6302350  15.4334450  50.1798450  64.4144880  30.4569010
  50.5939470  64.5689960  31.3059430  49.2449450  64.5400100  30.6194790
  50.6520620  61.7541040  32.4608160  51.2341390  60.9993360  32.3728640
  50.8282390  62.2848480  31.6839640  41.7692690  56.9137790  30.7725110
  41.6749560  56.2958540  30.0475980  41.1890080  57.6404080  30.5455020
  44.5354130  55.4711030  27.8052500  44.0871430  55.4935290  26.9598050
  43.9019330  55.0730050  28.4022800  44.9413680  64.3665360  28.4264940
  45.3601790  65.2098090  28.2541180  44.0222310  64.5037400  28.1971720
  47.2777580  62.0981540  29.8102780  47.3973790  61.5022680  30.5497620
  48.1371580  62.1351230  29.3904080  49.6165480  62.6518730  28.3865290
  49.0900700  63.1761350  27.7830430  49.9596820  63.2846120  29.0175020
  42.0151870  60.0412100  14.8315000  41.8140930  59.1779460  15.1928340
  41.8443920  59.9545460  13.8936600  44.0446350  58.6402890  31.0678600
  44.6346040  58.3318740  31.7556420  43.2266590  58.1682640  31.2238500
  48.8639780  58.2568700  31.3011620  48.1755300  57.5950240  31.2361610
  49.5845800  57.8106970  31.7460080  49.4940180  54.8520330  17.3601880
  49.7742470  54.0088230  17.7161300  48.7205910  55.0843440  17.8740630
  40.8134670  57.1412720  14.8192880  41.1160570  57.1480150  13.9112030
  41.5529260  56.7910580  15.3160540  44.0319600  56.0847340  15.8049080
  43.6841600  55.4071330  15.2251530  44.2332370  55.6236850  16.6192470
  39.8364800  66.4455140  15.6522680  40.2739670  66.9884810  16.3080260
  40.3212530  65.6202090  15.6619020  41.6472520  67.5653180  20.7644910
  41.3468060  67.4418150  21.6648820  41.5410010  66.7061770  20.3560640
  53.8720900  64.0897060  17.9705790  54.6339810  64.6593710  18.0765480
  53.8875270  63.5224260  18.7414100  37.3725240  62.6134990  22.2013450
  36.7174080  62.3446630  21.5573150  38.2103190  62.5039470  21.7515430
  54.8780870  64.9447160  22.8147720  55.2489700  64.1614480  22.4083690
  55.5182800  65.6336260  22.6365020  51.8614630  66.3283740  28.2278040
  51.0474470  66.7580900  28.4903830  52.2688830  66.9402150  27.6147090
  53.9240070  64.3831430  15.1278310  54.1988910  65.2910310  14.9997530
  53.7350810  64.3193960  16.0640300  50.3215680  57.4076280  16.4231940
  50.7400560  57.2207260  15.5828600  50.0151740  56.5555330  16.7334870
  53.8205410  62.3200420  20.1207740  53.4449010  61.5528350  19.6889030
  53.0908530  62.7023120  20.6082670  38.4101170  62.9987560  26.7416790
  38.7774210  62.9114960  27.6212810  37.8411990  62.2354110  26.6423650
  53.2105030  61.4671940  29.7547260  52.9791120  61.2384690  28.8545210
  53.4709580  62.3871490  29.7092150  37.9617170  59.9096650  30.6475210
  37.0673220  59.8763410  30.9868920  38.5014720  60.1083440  31.4126460
  51.6493100  56.6928370  32.5326960  52.5263280  56.7011770  32.9160960
  51.6613940  55.9559210  31.9219310  36.5863320  59.8233920  18.1438780
  35.6827400  60.0864120  17.9690440  37.0703940  60.0945090  17.3638740
  53.0956370  60.5457910  23.4214980  53.6193850  60.0520560  22.7905150
  53.6815790  60.6808270  24.1662550  53.2746090  60.6297780  26.9434530
  52.3248800  60.5961320  27.0579520  53.4559100  61.5397890  26.7084300
  39.1290530  58.8799460  16.0533160  39.8382230  58.4582680  15.5680440
  38.4130470  58.9474690  15.4216510  38.7764690  54.9338790  15.0935810
  39.4992820  55.4747730  15.4117030  39.0489210  54.6602210  14.2177350
  52.5856340  59.8031260  19.3607390  53.0815460  59.5702130  20.1456270
  52.3872410  58.9643100  18.9445030  38.4656880  54.1844980  24.9958430
  39.1133070  53.6342360  24.5553590  38.8858720  54.4388130  25.8174240
  54.0143500  58.4392210  21.8945070  53.9042780  58.2848250  22.8327340
  54.7751090  57.9113150  21.6520480  52.3609220  54.3786340  28.3528070
  52.9981440  54.9920480  28.7187260  52.5084110  54.4147000  27.4077300
  54.9033770  56.2700130  15.1351210  55.8283080  56.1381310  14.9269500
  54.8809560  56.3492950  16.0887660  54.9772260  57.0410790  17.7607920
  54.1823760  56.9755910  18.2900830  55.1815540  57.9761430  17.7493270
  38.2188880  54.3400650  27.7383750  37.8703700  54.7964470  28.5041930
  37.8876580  53.4457780  27.8206180  45.7313700  55.5312530  31.2603170
  45.6702590  56.1234360  32.0098580  46.6714080  55.4238490  31.1153430
  48.3688260  55.1882590  30.8995460  48.9828670  55.5061880  30.2376540
  48.9137820  54.7031180  31.5191320  38.8909520  53.8676850  31.0134520
  39.4392510  53.6864900  30.2500630  38.9564830  53.0770960  31.5490830
  49.1096300  53.7514730  27.2264750  48.2356140  54.0849840  27.0237680
  49.0007050  53.2787910  28.0516620  50.0168280  55.9585600  28.6106470
  49.6881640  55.1437360  28.2308200  50.9650580  55.9155410  28.4872160
  46.8571120  54.6684570  26.1657660  46.0742910  55.1430070  26.4454420
  46.5634050  53.7639400  26.0570840  51.4092190  55.3707670  24.2106750
  51.8500280  55.3152770  23.3628350  51.1399780  56.2865680  24.2816930
  53.2730760  55.0022910  22.2215570  53.2119160  54.0584130  22.0746590
  54.0522790  55.1103000  22.7669030  38.2011530  54.9732050  18.6871380
  38.9590890  55.0860930  18.1135410  37.7388700  55.8101250  18.6414810
  44.7425340  57.0871320  21.6773690  43.9299850  56.7128210  21.3369570
  45.2466980  56.3316400  21.9794880  49.2450320  53.7513770  22.9156760
  49.8479690  54.3233980  23.3905280  48.5043310  54.3153210  22.6930660
  52.3884920  54.1535330  18.1897040  52.5835550  55.0518780  18.4564470
  51.6014790  53.9222410  18.6829990  40.5736680  55.4996100  17.2273350
  41.1029440  54.7125900  17.0981300  41.2065000  56.1787290  17.4608880
  42.7674520  55.2371240  20.2818740  42.1377260  54.5358550  20.4488870
  42.2279660  55.9975370  20.0651900  42.8930080  54.5155220  32.7171230
  42.6114350  55.0188820  31.9532050  43.2749780  53.7176970  32.3513360
  49.4945540  53.9308800  33.2951700  49.3810990  54.2503410  34.1903220
  50.3115280  54.3321310  32.9988980  48.4003690  61.9501270   3.6586440
  48.3197740  61.0355880   3.3878150  47.9868110  62.4468340   2.9526150
  46.5321730  63.7280290   5.5395710  45.7563830  63.2480730   5.8294280
  47.1834660  63.0485940   5.3651870  40.5487560  64.0400100   6.4171470
  39.7172440  63.7848810   6.8167980  41.1568540  64.1110870   7.1529390
  36.9212520  61.6007640   6.0853560  37.4928630  60.8329840   6.0857200
  36.9214060  61.8996400   5.1760170  45.9730720  66.4037480   5.5465870
  45.9039000  65.4627420   5.3855000  46.7350580  66.4938890   6.1188440
  38.1637390  57.0092000   7.8722490  37.9840230  56.1117750   8.1525250
  37.7617470  57.5563870   8.5469440  47.0035890  59.2107860   5.7734800
  47.3800710  58.3379740   5.6608470  46.9055400  59.5466560   4.8825240
  50.7860010  56.7058300   2.7063140  51.6069630  56.2154870   2.7488620
  50.8194090  57.2955960   3.4594980  38.7824060  59.5052500   6.4804830
  39.4634170  59.7690870   7.0992230  38.4672110  58.6653370   6.8142840
  42.9748630  60.5519860   5.5677420  43.4826850  61.0500830   6.2082440
  43.5061870  59.7755060   5.3916780  55.0759560  58.7225050   9.2706770
  54.3711730  59.1106760   8.7521880  55.3417480  59.4175340   9.8727700
  41.2584730  55.1918420   9.8340840  41.2603170  55.7090810   9.0286740
  40.4289040  54.7148600   9.8110770  42.5087580  64.8313600   8.0114340
  42.1756960  65.4582520   8.6535410  42.6854260  65.3575480   7.2316010
  51.0221490  58.6458680   5.4790680  50.3177060  58.9343570   6.0593790
  51.3833650  59.4558790   5.1190240  40.9400060  56.9028380   7.8411290
  41.2816870  57.7470430   7.5465160  40.0015870  57.0512120   7.9576630
  41.7206680  66.7994400   9.8263520  42.3380680  67.4745480   9.5447970
  40.8599800  67.2082380   9.7351020  54.0908410  58.0913470   5.8699890
  53.1433320  58.1252450   6.0015320  54.4158400  58.9052420   6.2549250
  44.6227950  54.3910650   4.1655880  44.9302930  53.8357540   3.4491380
  43.6928650  54.5255110   3.9828870  49.5728450  65.0107780   7.7845950
  49.9897240  64.7967890   6.9499410  50.2968270  65.2680570   8.3554570
  53.5190550  63.4095000   7.8762190  52.6909180  63.4788090   7.4012320
  54.1141030  63.9949310   7.4078020  50.4832560  60.1964320   8.8217060
  50.0703740  61.0218030   9.0757050  49.7508510  59.6109360   8.6293420
  42.6165350  62.9824220   3.6835730  42.2122350  62.2701470   3.1881630
  42.7028470  62.6377460   4.5723770  43.0847050  66.6691780   5.8474940
  42.7875340  66.0637250   5.1682720  44.0346870  66.7069090   5.7364300
  41.3293970  59.7567430   7.4634770  41.8808560  59.8662770   6.6888020
  41.8437480  60.1305030   8.1790000  42.1765480  66.4073470  12.4982740
  41.2794010  66.6313440  12.7456140  42.2018350  66.5308410  11.5494140
  41.0036700  63.2786790  11.0740110  40.8644470  64.1509590  11.4427510
  40.1218060  62.9359600  10.9288050  36.9555350  65.0484340   6.9911020
  37.0335770  65.1833110   6.0466740  37.5697030  64.3400230   7.1839140
  38.2002980  66.7484530   3.4017200  37.7931060  66.8899120   2.5470800
  39.0915990  66.4644690   3.1988410  54.1565120  67.1948440  11.7389440
  54.2828180  66.9560320  10.8206620  54.1986500  66.3632980  12.2111520
  54.0089130  59.2480900  12.7039180  53.3933400  59.7560570  12.1754640
  53.6885550  58.3479230  12.6465120  37.0114870  66.0898510   9.5305480
  37.1745910  65.6203870   8.7124850  37.4767320  65.5822070  10.1954320
  41.7833640  55.2204270   4.5666050  41.3401790  56.0013810   4.2350570
  42.3418630  55.5434160   5.2736990  46.0703450  58.0872790  10.1701370
  45.6082820  58.2955810  10.9821310  45.6681560  57.2732140   9.8672040
  51.0707960  59.3081740  11.2998030  50.2201550  59.0087490  11.6207100
  50.9109750  59.5523750  10.3881850  48.1657670  60.8083490  13.3996820
  48.4911080  59.9747240  13.0599050  48.9538000  61.3312010  13.5475150
  43.8209540  55.7651600   6.4255650  44.1181870  56.6714430   6.3447670
  44.3695100  55.2770380   5.8115220  41.5747860  60.3437840   2.2947300
  41.3488780  60.1275010   3.1993920  40.7940390  60.7766300   1.9493270
  44.0147070  61.2423420  12.9607570  43.9190670  60.3018150  12.8107970
  44.8579050  61.4638490  12.5655640  47.4110490  58.9864750   2.9241230
  47.8040060  59.3036950   2.1109920  47.7727340  58.1076630   3.0385750
  39.1457610  57.6537090  11.1141350  38.7521000  58.5012300  11.3214130
  38.4576010  57.0163460  11.3049990  45.7202660  57.7372060  14.1838090
  45.0300980  57.5444260  14.8184180  46.4634960  58.0206700  14.7162390
  36.4474660  55.5765550   5.1471430  36.1587710  56.1468410   5.8596410
  37.1920420  55.0970000   5.5102660  47.9965630  61.5770500   7.0192010
  47.2646750  62.0857310   7.3682110  47.5989970  60.7600480   6.7180790
  44.4343020  58.2524700   5.4244500  44.4379080  57.8114650   4.5749040
  45.3294140  58.5742030   5.5316320  40.2845400  58.1351190   4.3838710
  39.9445450  58.6126420   5.1405760  39.5222720  57.6816310   4.0239810
  48.4591540  57.0304180   6.4314950  48.4764280  57.4812830   7.2756800
  48.2107120  56.1309820   6.6448390  51.8862290  54.4436360  12.2701330
  52.2108060  53.7126020  12.7959310  51.9218800  54.1250000  11.3682320
  38.5853850  65.4649940  11.6901290  38.2008640  64.8243610  12.2884250
  38.8966040  66.1686060  12.2596020  44.7350990  62.3126480   7.1709910
  45.1021120  61.8385050   7.9171250  44.5456050  63.1868050   7.5118250
  37.5991480  57.0570170   3.3003380  37.3138400  56.6925840   4.1382000
  37.5370340  56.3250630   2.6866520  42.5250360  61.3535120   9.4894120
  42.2207430  62.2327100   9.7144480  43.4796820  61.4134910   9.5251560
  51.8120130  64.5561470   5.8787360  52.5319250  65.0516760   5.4883470
  51.6101950  63.8779360   5.2341230  47.1938930  64.6270530  11.7656360
  47.1276240  63.7066200  11.5113950  46.5644070  64.7245970  12.4801000
  41.0969550  65.2276490   3.7239780  41.6148220  64.4244750   3.6696670
  40.6453570  65.1655630   4.5656610  38.5814090  62.1937860  10.6365480
  38.2229030  62.8591710  11.2238820  38.2868650  61.3621410  11.0078100
  41.7827210  62.6522100  13.5205030  41.4827350  62.7979280  12.6232850
  42.5538450  62.0927390  13.4278420  47.1255660  67.4491100  11.5160160
  47.1400200  66.5172060  11.2979070  46.4180760  67.5350860  12.1549930
  53.3366870  64.0898440  10.8628740  52.6115060  64.6827220  10.6658130
  53.8642330  64.0821980  10.0642110  48.8666460  65.8158610   4.3612590
  49.2190280  65.2186740   3.7013960  47.9828790  65.4902840   4.5320840
  44.9529740  66.5756300   1.7683000  45.6400870  67.1225510   2.1490590
  44.1662160  67.1197030   1.8032610  37.1562660  55.6831100  11.3137580
  36.4421180  55.8828020  11.9190190  37.5757700  54.9070670  11.6852380
  48.6501440  58.1753410   9.0639030  49.0182260  57.3548620   9.3918600
  47.7899640  58.2355300   9.4794680  45.6103430  60.8293000   9.2877000
  46.1088680  61.3038820   9.9528850  45.7526380  59.9056520   9.4947030
  48.0162930  56.1346960   2.7280260  47.8930710  56.1533090   1.7789770
  48.9647490  56.1825900   2.8478660  52.8170290  57.0460960  10.1305390
  52.3143890  57.7866360  10.4699200  53.6326950  57.4344960   9.8142180
  51.1092300  62.2894140   3.5766750  50.1682440  62.3044370   3.7514440
  51.4236370  61.5030100   4.0227050  48.4258320  66.8460140  14.0599130
  47.8196480  66.8691740  13.3194880  48.1212430  66.1143180  14.5966380
  37.3091500  63.2253730  13.0559770  37.8130520  62.6461010  13.6276000
  36.5698920  63.5093960  13.5936140  44.3629440  64.6324720  12.5895290
  43.5975110  65.2009720  12.5049960  44.5445400  64.3400930  11.6963520
  51.5052790  66.3630050  13.1470310  52.2462260  66.7005810  12.6437770
  50.7425470  66.5322110  12.5940080  39.3414580  61.3683320  13.9509840
  39.3819920  61.0697190  14.8595070  40.1960080  61.7690930  13.7917360
  41.2820390  59.9475420  11.9184330  40.7516850  59.4566370  11.2907670
  41.9508460  60.3759620  11.3842260  50.1798450  64.4144880  11.6825520
  50.5939470  64.5689960  12.5315940  49.2449450  64.5400100  11.8451300
  50.6520620  61.7541040  13.6864670  51.2341390  60.9993360  13.5985150
  50.8282390  62.2848480  12.9096150  41.7692690  56.9137790  11.9981620
  41.6749560  56.2958540  11.2732490  41.1890080  57.6404080  11.7711530
  44.5354130  55.4711030   9.0309010  44.0871430  55.4935290   8.1854560
  43.9019330  55.0730050   9.6279310  44.9413680  64.3665360   9.6521450
  45.3601790  65.2098090   9.4797690  44.0222310  64.5037400   9.4228230
  47.2777580  62.0981540  11.0359290  47.3973790  61.5022680  11.7754130
  48.1371580  62.1351230  10.6160590  49.6165480  62.6518730   9.6121800
  49.0900700  63.1761350   9.0086940  49.9596820  63.2846120  10.2431530
  44.0446350  58.6402890  12.2935110  44.6346040  58.3318740  12.9812930
  43.2266590  58.1682640  12.4495010  48.8639780  58.2568700  12.5268130
  48.1755300  57.5950240  12.4618120  49.5845800  57.8106970  12.9716590
  37.3725240  62.6134990   3.4269960  36.7174080  62.3446630   2.7829660
  38.2103190  62.5039470   2.9771940  54.8780870  64.9447160   4.0404230
  55.2489700  64.1614480   3.6340200  55.5182800  65.6336260   3.8621530
  51.8614630  66.3283740   9.4534550  51.0474470  66.7580900   9.7160340
  52.2688830  66.9402150   8.8403600  38.4101170  62.9987560   7.9673300
  38.7774210  62.9114960   8.8469320  37.8411990  62.2354110   7.8680160
  53.2105030  61.4671940  10.9803770  52.9791120  61.2384690  10.0801720
  53.4709580  62.3871490  10.9348660  37.9617170  59.9096650  11.8731720
  37.0673220  59.8763410  12.2125430  38.5014720  60.1083440  12.6382970
  51.6493100  56.6928370  13.7583470  52.5263280  56.7011770  14.1417470
  51.6613940  55.9559210  13.1475820  53.0956370  60.5457910   4.6471490
  53.6193850  60.0520560   4.0161660  53.6815790  60.6808270   5.3919060
  53.2746090  60.6297780   8.1691040  52.3248800  60.5961320   8.2836030
  53.4559100  61.5397890   7.9340810  38.4656880  54.1844980   6.2214940
  39.1133070  53.6342360   5.7810100  38.8858720  54.4388130   7.0430750
  54.0143500  58.4392210   3.1201580  53.9042780  58.2848250   4.0583850
  54.7751090  57.9113150   2.8776990  52.3609220  54.3786340   9.5784580
  52.9981440  54.9920480   9.9443770  52.5084110  54.4147000   8.6333810
  38.2188880  54.3400650   8.9640260  37.8703700  54.7964470   9.7298440
  37.8876580  53.4457780   9.0462690  45.7313700  55.5312530  12.4859680
  45.6702590  56.1234360  13.2355090  46.6714080  55.4238490  12.3409940
  48.3688260  55.1882590  12.1251970  48.9828670  55.5061880  11.4633050
  48.9137820  54.7031180  12.7447830  38.8909520  53.8676850  12.2391030
  39.4392510  53.6864900  11.4757140  38.9564830  53.0770960  12.7747340
  49.1096300  53.7514730   8.4521260  48.2356140  54.0849840   8.2494190
  49.0007050  53.2787910   9.2773130  50.0168280  55.9585600   9.8362980
  49.6881640  55.1437360   9.4564710  50.9650580  55.9155410   9.7128670
  46.8571120  54.6684570   7.3914170  46.0742910  55.1430070   7.6710930
  46.5634050  53.7639400   7.2827350  51.4092190  55.3707670   5.4363260
  51.8500280  55.3152770   4.5884860  51.1399780  56.2865680   5.5073440
  53.2730760  55.0022910   3.4472080  53.2119160  54.0584130   3.3003100
  54.0522790  55.1103000   3.9925540  44.7425340  57.0871320   2.9030200
  43.9299850  56.7128210   2.5626080  45.2466980  56.3316400   3.2051390
  49.2450320  53.7513770   4.1413270  49.8479690  54.3233980   4.6161790
  48.5043310  54.3153210   3.9187170  42.8930080  54.5155220  13.9427740
  42.6114350  55.0188820  13.1788560  43.2749780  53.7176970  13.5769870
  49.4945540  53.9308800  14.5208210  49.3810990  54.2503410  15.4159730
  50.3115280  54.3321310  14.2245490  48.4003690  43.1757780  78.7560400
  48.3197740  42.2612390  78.4852110  47.9868110  43.6724850  78.0500110
  46.5321730  44.9536800  80.6369670  45.7563830  44.4737240  80.9268240
  47.1834660  44.2742450  80.4625830  40.5487560  45.2656610  81.5145430
  39.7172440  45.0105320  81.9141940  41.1568540  45.3367380  82.2503350
  50.5529160  49.3596990  79.4168800  50.0910690  48.5884230  79.7455970
  51.3654710  49.3863060  79.9221250  40.5288820  49.2996700  81.7103450
  40.8316860  48.4094440  81.5313670  41.2732410  49.8566920  81.4825700
  38.9579510  40.2258500  75.2987820  38.0696210  40.5674470  75.1967700
  39.2420700  40.0258820  74.4068650  36.9212520  42.8264150  81.1827520
  37.4928630  42.0586350  81.1831160  36.9214060  43.1252910  80.2734130
  46.7792470  51.6455000  79.0372790  46.1603910  52.1012500  78.4667230
  47.6344250  51.8006460  78.6362490  45.9730720  47.6293990  80.6439830
  45.9039000  46.6883930  80.4828960  46.7350580  47.7195400  81.2162400
  38.1637390  38.2348510  82.9696450  37.9840230  37.3374260  83.2499210
  37.7617470  38.7820380  83.6443400  47.0035890  40.4364370  80.8708760
  47.3800710  39.5636250  80.7582430  46.9055400  40.7723070  79.9799200
  41.1340900  38.8090000  76.3326200  41.2407650  39.7093730  76.6394960
  40.2233260  38.7607970  76.0420850  50.7860010  37.9314810  77.8037100
  51.6069630  37.4411380  77.8462580  50.8194090  38.5212470  78.5568940
  38.7824060  40.7309010  81.5778790  39.4634170  40.9947380  82.1966190
  38.4672110  39.8909880  81.9116800  42.9748630  41.7776370  80.6651380
  43.4826850  42.2757340  81.3056400  43.5061870  41.0011570  80.4890740
  47.6455820  46.5294240  76.4304700  47.0273090  46.9943690  75.8667420
  48.1579070  47.2221720  76.8474210  42.5087580  46.0570110  83.1088300
  42.1756960  46.6839030  83.7509370  42.6854260  46.5831990  82.3289970
  51.0221490  39.8715190  80.5764640  50.3177060  40.1600080  81.1567750
  51.3833650  40.6815300  80.2164200  40.9400060  38.1284890  82.9385250
  41.2816870  38.9726940  82.6439120  40.0015870  38.2768630  83.0550590
  37.0139020  47.2150770  73.8044330  36.6367000  47.7037870  73.0729230
  37.2712090  47.8876050  74.4350860  52.6384270  49.4890320  82.8392120
  51.9547790  50.1589430  82.8308790  53.1778560  49.6870970  82.0736980
  54.0908410  39.3169980  80.9673850  53.1433320  39.3508960  81.0989280
  54.4158400  40.1308930  81.3523210  44.6227950  35.6167160  79.2629840
  44.9302930  35.0614050  78.5465340  43.6928650  35.7511620  79.0802830
  50.1743010  51.3334450  81.5537300  50.1870170  50.9296740  80.6859560
  49.6218230  52.1081740  81.4498730  51.4688430  48.0550670  76.6427470
  51.3584760  47.1125000  76.7676890  51.4656680  48.4166310  77.5290230
  49.5728450  46.2364290  82.8819910  49.9897240  46.0224400  82.0473370
  50.2968270  46.4937080  83.4528530  47.0108710  43.6815990  75.9989960
  46.0837990  43.6153370  76.2278430  47.1633530  44.6196120  75.8845200
  46.9977790  39.9532990  72.9957120  46.0581460  40.1146950  73.0809580
  47.3161050  40.6718670  72.4493110  53.5190550  44.6351510  82.9736150
  52.6909180  44.7044600  82.4986280  54.1141030  45.2205820  82.5051980
  51.0406000  45.2436290  76.5025210  50.4218420  44.9055840  75.8551510
  51.0230450  44.5996050  77.2104400  42.6165350  44.2080730  78.7809690
  42.2122350  43.4957980  78.2855590  42.7028470  43.8633970  79.6697730
  43.0847050  47.8948290  80.9448900  42.7875340  47.2893760  80.2656680
  44.0346870  47.9325600  80.8338260  41.3293970  40.9823940  82.5608730
  41.8808560  41.0919280  81.7861980  41.8437480  41.3561540  83.2763960
  49.2170700  44.4823100  73.5097960  49.6563980  43.6445530  73.3635780
  49.9299120  45.1152500  73.5962100  47.3266080  49.4219170  77.4779200
  47.7661990  50.1643500  77.0634590  47.2652970  49.6645740  78.4018160
  52.7987840  35.7365910  71.8239000  52.4860500  35.8292740  72.7238070
  53.5600310  36.3146940  71.7736430  39.3169980  43.1025710  76.2816340
  39.1967580  43.8287800  75.6697610  39.0070870  42.3328620  75.8044250
  36.9555350  46.2740850  82.0884980  37.0335770  46.4089620  81.1440700
  37.5697030  45.5656740  82.2813100  38.2002980  47.9741040  78.4991160
  37.7931060  48.1155630  77.6444760  39.0915990  47.6901200  78.2962370
  49.9936260  52.4088290  74.8342210  49.8337400  52.1191230  75.7324040
  49.8282970  51.6328420  74.2987440  42.4724640  52.1886820  76.6113830
  42.2967120  51.2722360  76.3981630  41.6180380  52.5474110  76.8511630
  49.2612320  51.5438560  77.4688700  49.7169270  50.7627940  77.7827320
  49.6004840  52.2545380  78.0129880  41.7833640  36.4460780  79.6640010
  41.3401790  37.2270320  79.3324530  42.3418630  36.7690670  80.3710950
  44.8992460  36.0671480  74.5445840  44.2746640  36.0631350  75.2699150
  44.8122580  35.2002440  74.1481810  43.8209540  36.9908110  81.5229610
  44.1181870  37.8970940  81.4421630  44.3695100  36.5026890  80.9089180
  41.5747860  41.5694350  77.3921260  41.3488780  41.3531520  78.2967880
  40.7940390  42.0022810  77.0467230  48.8045620  41.5757720  75.9911910
  48.2054510  42.2993520  75.8075530  49.3525230  41.5134500  75.2088360
  47.4110490  40.2121260  78.0215190  47.8040060  40.5293460  77.2083880
  47.7727340  39.3333140  78.1359710  36.4474660  36.8022060  80.2445390
  36.1587710  37.3724920  80.9570370  37.1920420  36.3226510  80.6076620
  47.9965630  42.8027010  82.1165970  47.2646750  43.3113820  82.4656070
  47.5989970  41.9856990  81.8154750  44.4343020  39.4781210  80.5218460
  44.4379080  39.0371160  79.6723000  45.3294140  39.7998540  80.6290280
  40.2845400  39.3607700  79.4812670  39.9445450  39.8382930  80.2379720
  39.5222720  38.9072820  79.1213770  44.4963170  40.4793290  73.5125220
  44.6175990  40.4379770  74.4611040  44.1111680  41.3417440  73.3571950
  48.4591540  38.2560690  81.5288910  48.4764280  38.7069340  82.3730760
  48.2107120  37.3566330  81.7422350  44.7350990  43.5382990  82.2683870
  45.1021120  43.0641560  83.0145210  44.5456050  44.4124560  82.6092210
  37.5991480  38.2826680  78.3977340  37.3138400  37.9182350  79.2355960
  37.5370340  37.5507140  77.7840480  41.0532150  46.7852620  75.1834930
  40.2794410  46.2450240  75.0233650  41.7826780  46.2659230  74.8452690
  51.8120130  45.7817980  80.9761320  52.5319250  46.2773270  80.5857430
  51.6101950  45.1035870  80.3315190  47.2730070  37.1755940  75.1190710
  46.4594680  36.6769110  75.0436020  47.0792020  38.0154190  74.7027060
  49.9878460  41.5475590  73.4152870  50.8758080  41.8592820  73.2404210
  49.9583550  40.6747840  73.0233450  41.0969550  46.4533000  78.8213740
  41.6148220  45.6501260  78.7670630  40.6453570  46.3912140  79.6630570
  45.9839050  47.7199280  74.0941040  46.3254750  48.4641510  73.5984360
  45.1551760  48.0330400  74.4565870  52.2592730  42.8587430  72.8832730
  52.1756450  43.2901650  72.0329170  52.9786920  43.3185780  73.3159550
  53.2879980  49.7129690  75.6114860  52.6456140  49.0585310  75.8858580
  52.9010640  50.1184780  74.8355530  48.8666460  47.0415120  79.4586550
  49.2190280  46.4443250  78.7987920  47.9828790  46.7159350  79.6294800
  44.9529740  47.8012810  76.8656960  45.6400870  48.3482020  77.2464550
  44.1662160  48.3453540  76.9006570  44.2556950  44.8058840  76.4782320
  44.7119730  45.6164090  76.7042510  43.9045160  44.4881980  77.3100810
  40.1568730  35.1496490  76.9504840  40.0283360  35.1414390  77.8989760
  39.3330750  35.4879580  76.5995850  47.8321640  48.3197530  82.4252070
  48.4743870  47.6190690  82.5384240  48.3570990  49.0995970  82.2448960
  37.4593390  52.6313010  72.9235670  37.8191030  53.2302350  72.2692940
  37.3185730  53.1772900  73.6970700  51.2593610  46.5218090  73.8105370
  50.9715310  46.9830780  74.5983250  52.0545780  46.0615860  74.0789590
  43.4762010  50.0144210  73.7409340  43.4672110  50.7473900  73.1253850
  42.5560370  49.7675790  73.8336300  52.0163470  38.3566860  74.9700550
  51.3876630  38.4612530  74.2558780  51.5215390  38.5763640  75.7594430
  46.4621610  50.0772450  72.4034530  46.5633590  49.8736440  71.4736510
  45.5623350  49.8230730  72.6082310  43.9847500  40.6352810  76.3858430
  43.2763650  41.1039150  76.8272040  44.2691980  39.9774820  77.0203620
  48.0162930  37.3603470  77.8254220  47.8930710  37.3789600  76.8763730
  48.9647490  37.4082410  77.9452620  45.1039720  52.5958770  77.0982200
  45.3581220  52.5580160  76.1761570  44.1552200  52.4692100  77.0910450
  42.1882520  38.9437890  73.7609140  43.0373050  39.3808040  73.6949330
  41.8213790  39.2558150  74.5881200  51.1092300  43.5150650  78.6740710
  50.1682440  43.5300880  78.8488400  51.4236370  42.7286610  79.1201010
  53.1117880  50.6859500  80.3494970  53.2365300  51.5090670  80.8218780
  53.9783440  50.4750230  80.0019120  40.5835410  52.7790710  80.0212100
  41.3197890  52.2306170  80.2920670  40.9676330  53.6446720  79.8818090
  37.4680890  48.8464280  75.8953610  36.5420670  49.0885420  75.8859020
  37.9337320  49.6738540  75.7738360  43.6937720  51.9521020  71.8437670
  44.4866330  52.2409850  71.3919460  43.1742070  51.5213190  71.1650150
  44.2115120  47.1724430  71.7080020  44.1065760  46.5576780  72.4341400
  44.0439340  46.6490320  70.9243030  47.4517850  46.2344460  72.3122010
  46.9027950  46.6813760  72.9564750  48.0737110  45.7293710  72.8359680
  43.1192970  45.1935380  74.2087310  43.5409390  45.0275250  75.0518700
  43.2443810  44.3835610  73.7142450  45.6320610  44.2172990  71.4564410
  46.1526270  43.5022010  71.0905560  46.2789010  44.8558860  71.7564920
  49.4940180  36.0776840  73.6832350  49.7742470  35.2344740  74.0391770
  48.7205910  36.3099950  74.1971100  40.8134670  38.3669230  71.1423350
  41.1160570  38.3736660  70.2342500  41.5529260  38.0167090  71.6391010
  44.0319600  37.3103850  72.1279550  43.6841600  36.6327840  71.5482000
  44.2332370  36.8493360  72.9422940  46.1968640  52.2984600  73.7466150
  47.0919430  52.6369570  73.7684910  46.2286270  51.5764010  73.1190430
  39.8364800  47.6711650  71.9753150  40.2739670  48.2141320  72.6310730
  40.3212530  46.8458600  71.9849490  37.0510600  50.4600680  79.4273410
  37.3813610  49.5921740  79.1952050  37.4801600  50.6659200  80.2578370
  41.6472520  48.7909690  77.0875380  41.3468060  48.6674660  77.9879290
  41.5410010  47.9318280  76.6791110  37.5400810  51.3271270  82.1655040
  37.1031800  51.5072070  82.9979190  38.1078490  52.0845890  82.0236760
  53.8720900  45.3153570  74.2936260  54.6339810  45.8850220  74.3995950
  53.8875270  44.7480770  75.0644570  37.3725240  43.8391500  78.5243920
  36.7174080  43.5703140  77.8803620  38.2103190  43.7295980  78.0745900
  54.8780870  46.1703670  79.1378190  55.2489700  45.3870990  78.7314160
  55.5182800  46.8592770  78.9595490  50.3215680  38.6332790  72.7462410
  50.7400560  38.4463770  71.9059070  50.0151740  37.7811840  73.0565340
  53.8205410  43.5456930  76.4438210  53.4449010  42.7784860  76.0119500
  53.0908530  43.9279630  76.9313140  53.0956370  41.7714420  79.7445450
  53.6193850  41.2777070  79.1135620  53.6815790  41.9064780  80.4893020
  53.2746090  41.8554290  83.2665000  52.3248800  41.8217830  83.3809990
  53.4559100  42.7654400  83.0314770  52.5856340  41.0287770  75.6837860
  53.0815460  40.7958640  76.4686740  52.3872410  40.1899610  75.2675500
  38.4656880  35.4101490  81.3188900  39.1133070  34.8598870  80.8784060
  38.8858720  35.6644640  82.1404710  54.0143500  39.6648720  78.2175540
  53.9042780  39.5104760  79.1557810  54.7751090  39.1369660  77.9750950
  54.9772260  38.2667300  74.0838390  54.1823760  38.2012420  74.6131300
  55.1815540  39.2017940  74.0723740  51.9190680  52.3058850  78.0776780
  52.5149750  51.9843420  77.4011200  52.1768830  51.8330670  78.8690050
  52.4702890  52.9554150  81.9074510  52.0105860  53.7069960  81.5332530
  51.8415350  52.2360620  81.8489310  42.8998610  51.2642390  81.0822640
  43.4163630  50.6529750  80.5570900  43.5495990  51.7671170  81.5733650
  45.6394110  52.1550880  81.9091620  45.9271920  51.9005180  81.0324630
  46.1517330  51.6028240  82.4997190  46.8571120  35.8941080  82.4888130
  46.0742910  36.3686580  82.7684890  46.5634050  34.9895910  82.3801310
  51.4092190  36.5964180  80.5337220  51.8500280  36.5409280  79.6858820
  51.1399780  37.5122190  80.6047400  53.2730760  36.2279420  78.5446040
  53.2119160  35.2840640  78.3977060  54.0522790  36.3359510  79.0899500
  37.5783510  52.3671780  77.5069990  37.4105550  51.7342460  78.2051880
  36.7118020  52.5731180  77.1564180  38.2011530  36.1988560  75.0101850
  38.9590890  36.3117440  74.4365880  37.7388700  37.0357760  74.9645280
  44.7425340  38.3127830  78.0004160  43.9299850  37.9384720  77.6600040
  45.2466980  37.5572910  78.3025350  49.2450320  34.9770280  79.2387230
  49.8479690  35.5490490  79.7135750  48.5043310  35.5409720  79.0161130
  52.3884920  35.3791840  74.5127510  52.5835550  36.2775290  74.7794940
  51.6014790  35.1478920  75.0060460  39.1846210  51.0605010  74.9520130
  38.6593830  51.4413040  74.2482090  39.1090790  51.6855780  75.6729840
  40.5736680  36.7252610  73.5503820  41.1029440  35.9382410  73.4211770
  41.2065000  37.4043800  73.7839350  42.7674520  36.4627750  76.6049210
  42.1377260  35.7615060  76.7719340  42.2279660  37.2231880  76.3882370
  53.9411530  52.6192550  76.2734070  54.1163720  51.9330290  75.6294990
  53.2433100  53.1439600  75.8810740  41.7839180  53.0087390  73.8269380
  42.5158000  52.7246670  73.2793270  42.0432850  52.7700670  74.7168760
  40.9453970  49.1252120  73.8315710  40.3162850  49.5937220  74.3801540
  41.0601800  48.2801340  74.2661900  42.8017050  50.4465000  69.6055730
  42.7732480  50.8507950  68.7384160  42.6382020  49.5175360  69.4427330
  48.1657670  42.0340000  69.7227290  48.4911080  41.2003750  69.3829520
  48.9538000  42.5568520  69.8705620  53.2879980  49.7129690  56.8371370
  52.6456140  49.0585310  57.1115090  52.9010640  50.1184780  56.0612040
  51.6777360  48.6046150  53.3747720  51.4514940  47.8876590  53.9672360
  51.2873560  48.3558590  52.5369470  37.4435250  50.8967870  68.6234580
  37.5526370  49.9562610  68.4829970  36.7915810  51.1622620  67.9748310
  45.4347840  49.1683760  70.0232700  45.1144710  48.4493000  70.5678390
  44.7606200  49.8438830  70.0968760  39.5893690  51.9636780  70.4354190
  40.3906420  52.2848830  70.8489590  39.0745510  51.6032360  71.1574100
  52.7467890  51.1791150  54.4930920  52.4609400  50.7656290  53.6785100
  52.5487440  52.1078860  54.3731440  37.5400810  51.3271270  63.3911550
  37.1031800  51.5072070  64.2235700  38.1078490  52.0845890  63.2493270
  54.4164440  48.5706090  53.0158570  53.5857400  48.6382740  53.4865800
  54.5936270  49.4610210  52.7125430  54.8780870  46.1703670  60.3634700
  55.2489700  45.3870990  59.9570670  55.5182800  46.8592770  60.1852000
  53.9240070  45.6087940  52.6765290  54.1988910  46.5166820  52.5484510
  53.7350810  45.5450470  53.6127280  39.8253250  48.7376760  69.4523920
  39.7822880  48.3669670  70.3338380  39.9564260  49.6754330  69.5925740
  39.6641280  51.6839010  66.5721700  39.0701600  51.5523710  67.3111740
  39.6565120  50.8477150  66.1063800  45.7066470  53.0766980  70.5016330
  46.6333780  52.8411250  70.5452290  45.6916900  53.9038980  70.0202360
  50.5529160  49.3596990  41.8681820  50.0910690  48.5884230  42.1968990
  51.3654710  49.3863060  42.3734270  46.7792470  51.6455000  41.4885810
  46.1603910  52.1012500  40.9180250  47.6344250  51.8006460  41.0875510
  52.6384270  49.4890320  45.2905140  51.9547790  50.1589430  45.2821810
  53.1778560  49.6870970  44.5250000  50.1743010  51.3334450  44.0050320
  50.1870170  50.9296740  43.1372580  49.6218230  52.1081740  43.9011750
  51.4688430  48.0550670  39.0940490  51.3584760  47.1125000  39.2189910
  51.4656680  48.4166310  39.9803250  53.5190550  44.6351510  45.4249170
  52.6909180  44.7044600  44.9499300  54.1141030  45.2205820  44.9565000
  51.0406000  45.2436290  38.9538230  50.4218420  44.9055840  38.3064530
  51.0230450  44.5996050  39.6617420  51.1732660  51.4680160  47.0585020
  50.6963220  52.2752350  46.8657630  50.4894450  50.8158490  47.2111230
  49.2170700  44.4823100  35.9610980  49.6563980  43.6445530  35.8148800
  49.9299120  45.1152500  36.0475120  52.7987840  35.7365910  34.2752020
  52.4860500  35.8292740  35.1751090  53.5600310  36.3146940  34.2249450
  54.7531870  51.2292100  52.1276410  55.2291590  51.7074990  52.8065490
  55.3739030  51.1609590  51.4021910  54.1565120  48.4204950  49.2876420
  54.2828180  48.1816830  48.3693600  54.1986500  47.5889490  49.7598500
  49.9936260  52.4088290  37.2855230  49.8337400  52.1191230  38.1837060
  49.8282970  51.6328420  36.7500460  42.4724640  52.1886820  39.0626850
  42.2967120  51.2722360  38.8494650  41.6180380  52.5474110  39.3024650
  49.6962390  49.9175850  35.8453230  49.0027550  49.9153140  35.1855510
  50.4385250  49.4935170  35.4147400  49.2612320  51.5438560  39.9201720
  49.7169270  50.7627940  40.2340340  49.6004840  52.2545380  40.4642900
  51.8120130  45.7817980  43.4274340  52.5319250  46.2773270  43.0370450
  51.6101950  45.1035870  42.7828210  52.2592730  42.8587430  35.3345750
  52.1756450  43.2901650  34.4842190  52.9786920  43.3185780  35.7672570
  53.3366870  45.3154950  48.4115720  52.6115060  45.9083730  48.2145110
  53.8642330  45.3078490  47.6129090  53.2879980  49.7129690  38.0627880
  52.6456140  49.0585310  38.3371600  52.9010640  50.1184780  37.2868550
  47.8321640  48.3197530  44.8765090  48.4743870  47.6190690  44.9897260
  48.3570990  49.0995970  44.6961980  51.6777360  48.6046150  34.6004230
  51.4514940  47.8876590  35.1928870  51.2873560  48.3558590  33.7625980
  49.6059260  49.1192430  48.0801150  49.9415500  49.7059120  48.7579070
  48.6859600  48.9885140  48.3098940  37.4593390  52.6313010  35.3748690
  37.8191030  53.2302350  34.7205960  37.3185730  53.1772900  36.1483720
  51.2593610  46.5218090  36.2618390  50.9715310  46.9830780  37.0496270
  52.0545780  46.0615860  36.5302610  43.4762010  50.0144210  36.1922360
  43.4672110  50.7473900  35.5766870  42.5560370  49.7675790  36.2849320
  52.0163470  38.3566860  37.4213570  51.3876630  38.4612530  36.7071800
  51.5215390  38.5763640  38.2107450  46.4621610  50.0772450  34.8547550
  46.5633590  49.8736440  33.9249530  45.5623350  49.8230730  35.0595330
  45.1039720  52.5958770  39.5495220  45.3581220  52.5580160  38.6274590
  44.1552200  52.4692100  39.5423470  53.1117880  50.6859500  42.8007990
  53.2365300  51.5090670  43.2731800  53.9783440  50.4750230  42.4532140
  43.6937720  51.9521020  34.2950690  44.4866330  52.2409850  33.8432480
  43.1742070  51.5213190  33.6163170  49.8558690  51.7996940  50.2195520
  50.8080440  51.7154960  50.1695760  49.7086910  52.4638650  50.8929310
  52.7467890  51.1791150  35.7187430  52.4609400  50.7656290  34.9041610
  52.5487440  52.1078860  35.5987950  45.6320610  44.2172990  33.9077430
  46.1526270  43.5022010  33.5418580  46.2789010  44.8558860  34.2077940
  46.1968640  52.2984600  36.1979170  47.0919430  52.6369570  36.2197930
  46.2286270  51.5764010  35.5703450  53.1762990  50.8288270  48.9045370
  52.5764980  50.8880830  48.1609290  53.3056890  49.8893250  49.0342220
  54.4164440  48.5706090  34.2415080  53.5857400  48.6382740  34.7122310
  54.5936270  49.4610210  33.9381940  53.8720900  45.3153570  36.7449280
  54.6339810  45.8850220  36.8508970  53.8875270  44.7480770  37.5157590
  54.8780870  46.1703670  41.5891210  55.2489700  45.3870990  41.1827180
  55.5182800  46.8592770  41.4108510  51.8614630  47.5540250  47.0021530
  51.0474470  47.9837410  47.2647320  52.2688830  48.1658660  46.3890580
  53.9240070  45.6087940  33.9021800  54.1988910  46.5166820  33.7741020
  53.7350810  45.5450470  34.8383790  53.8205410  43.5456930  38.8951230
  53.4449010  42.7784860  38.4632520  53.0908530  43.9279630  39.3826160
  52.5856340  41.0287770  38.1350880  53.0815460  40.7958640  38.9199760
  52.3872410  40.1899610  37.7188520  54.9033770  37.4956640  33.9094700
  55.8283080  37.3637820  33.7012990  54.8809560  37.5749460  34.8631150
  54.9772260  38.2667300  36.5351410  54.1823760  38.2012420  37.0644320
  55.1815540  39.2017940  36.5236760  51.9190680  52.3058850  40.5289800
  52.5149750  51.9843420  39.8524220  52.1768830  51.8330670  41.3203070
  54.7863440  52.3130730  47.0800790  54.2921720  52.7099600  46.3627920
  54.1776730  51.6879940  47.4738070  52.4702890  52.9554150  44.3587530
  52.0105860  53.7069960  43.9845550  51.8415350  52.2360620  44.3002330
  45.6394110  52.1550880  44.3604640  45.9271920  51.9005180  43.4837650
  46.1517330  51.6028240  44.9510210  53.9411530  52.6192550  38.7247090
  54.1163720  51.9330290  38.0808010  53.2433100  53.1439600  38.3323760
  41.7839180  53.0087390  36.2782400  42.5158000  52.7246670  35.7306290
  42.0432850  52.7700670  37.1681780  52.2744030  52.3036840  51.5513880
  53.0669350  51.8086070  51.3439840  52.5677180  52.9826980  52.1589490
  48.4003690  43.1757780  22.4329930  48.3197740  42.2612390  22.1621640
  47.9868110  43.6724850  21.7269640  46.5321730  44.9536800  24.3139200
  45.7563830  44.4737240  24.6037770  47.1834660  44.2742450  24.1395360
  40.5487560  45.2656610  25.1914960  39.7172440  45.0105320  25.5911470
  41.1568540  45.3367380  25.9272880  50.5529160  49.3596990  23.0938330
  50.0910690  48.5884230  23.4225500  51.3654710  49.3863060  23.5990780
  40.5288820  49.2996700  25.3872980  40.8316860  48.4094440  25.2083200
  41.2732410  49.8566920  25.1595230  46.7792470  51.6455000  22.7142320
  46.1603910  52.1012500  22.1436760  47.6344250  51.8006460  22.3132020
  45.9730720  47.6293990  24.3209360  45.9039000  46.6883930  24.1598490
  46.7350580  47.7195400  24.8931930  47.0035890  40.4364370  24.5478290
  47.3800710  39.5636250  24.4351960  46.9055400  40.7723070  23.6568730
  55.0759560  39.9481560  28.0450260  54.3711730  40.3363270  27.5265370
  55.3417480  40.6431850  28.6471190  47.6455820  46.5294240  20.1074230
  47.0273090  46.9943690  19.5436950  48.1579070  47.2221720  20.5243740
  51.0221490  39.8715190  24.2534170  50.3177060  40.1600080  24.8337280
  51.3833650  40.6815300  23.8933730  37.0139020  47.2150770  17.4813860
  36.6367000  47.7037870  16.7498760  37.2712090  47.8876050  18.1120390
  52.6384270  49.4890320  26.5161650  51.9547790  50.1589430  26.5078320
  53.1778560  49.6870970  25.7506510  54.0908410  39.3169980  24.6443380
  53.1433320  39.3508960  24.7758810  54.4158400  40.1308930  25.0292740
  50.1743010  51.3334450  25.2306830  50.1870170  50.9296740  24.3629090
  49.6218230  52.1081740  25.1268260  51.4688430  48.0550670  20.3197000
  51.3584760  47.1125000  20.4446420  51.4656680  48.4166310  21.2059760
  49.5728450  46.2364290  26.5589440  49.9897240  46.0224400  25.7242900
  50.2968270  46.4937080  27.1298060  47.0108710  43.6815990  19.6759490
  46.0837990  43.6153370  19.9047960  47.1633530  44.6196120  19.5614730
  46.9977790  39.9532990  16.6726650  46.0581460  40.1146950  16.7579110
  47.3161050  40.6718670  16.1262640  53.5190550  44.6351510  26.6505680
  52.6909180  44.7044600  26.1755810  54.1141030  45.2205820  26.1821510
  51.0406000  45.2436290  20.1794740  50.4218420  44.9055840  19.5321040
  51.0230450  44.5996050  20.8873930  50.4832560  41.4220830  27.5960550
  50.0703740  42.2474540  27.8500540  49.7508510  40.8365870  27.4036910
  42.6165350  44.2080730  22.4579220  42.2122350  43.4957980  21.9625120
  42.7028470  43.8633970  23.3467260  43.0847050  47.8948290  24.6218430
  42.7875340  47.2893760  23.9426210  44.0346870  47.9325600  24.5107790
  51.1732660  51.4680160  28.2841530  50.6963220  52.2752350  28.0914140
  50.4894450  50.8158490  28.4367740  49.2170700  44.4823100  17.1867490
  49.6563980  43.6445530  17.0405310  49.9299120  45.1152500  17.2731630
  47.3266080  49.4219170  21.1548730  47.7661990  50.1643500  20.7404120
  47.2652970  49.6645740  22.0787690  42.8017050  50.4465000  32.0568750
  42.7732480  50.8507950  31.1897180  42.6382020  49.5175360  31.8940350
  52.7987840  35.7365910  15.5008530  52.4860500  35.8292740  16.4007600
  53.5600310  36.3146940  15.4505960  54.7531870  51.2292100  33.3532920
  55.2291590  51.7074990  34.0322000  55.3739030  51.1609590  32.6278420
  36.9555350  46.2740850  25.7654510  37.0335770  46.4089620  24.8210230
  37.5697030  45.5656740  25.9582630  38.2002980  47.9741040  22.1760690
  37.7931060  48.1155630  21.3214290  39.0915990  47.6901200  21.9731900
  54.1565120  48.4204950  30.5132930  54.2828180  48.1816830  29.5950110
  54.1986500  47.5889490  30.9855010  48.0181860  52.1232950  29.0827740
  48.5326530  52.0340960  29.8850170  47.1750940  52.4692650  29.3755650
  49.9936260  52.4088290  18.5111740  49.8337400  52.1191230  19.4093570
  49.8282970  51.6328420  17.9756970  42.4724640  52.1886820  20.2883360
  42.2967120  51.2722360  20.0751160  41.6180380  52.5474110  20.5281160
  49.6962390  49.9175850  17.0709740  49.0027550  49.9153140  16.4112020
  50.4385250  49.4935170  16.6403910  49.2612320  51.5438560  21.1458230
  49.7169270  50.7627940  21.4596850  49.6004840  52.2545380  21.6899410
  54.0089130  40.4737410  31.4782670  53.3933400  40.9817080  30.9498130
  53.6885550  39.5735740  31.4208610  37.0114870  47.3155020  28.3048970
  37.1745910  46.8460380  27.4868340  37.4767320  46.8078580  28.9697810
  48.8045620  41.5757720  19.6681440  48.2054510  42.2993520  19.4845060
  49.3525230  41.5134500  18.8857890  47.4110490  40.2121260  21.6984720
  47.8040060  40.5293460  20.8853410  47.7727340  39.3333140  21.8129240
  47.9965630  42.8027010  25.7935500  47.2646750  43.3113820  26.1425600
  47.5989970  41.9856990  25.4924280  44.4963170  40.4793290  17.1894750
  44.6175990  40.4379770  18.1380570  44.1111680  41.3417440  17.0341480
  43.5084670  42.7894430  16.5878050  42.9401570  42.3412680  15.9613960
  44.2173670  43.1487210  16.0543200  44.7350990  43.5382990  25.9453400
  45.1021120  43.0641560  26.6914740  44.5456050  44.4124560  26.2861740
  41.0532150  46.7852620  18.8604460  40.2794410  46.2450240  18.7003180
  41.7826780  46.2659230  18.5222220  51.8120130  45.7817980  24.6530850
  52.5319250  46.2773270  24.2626960  51.6101950  45.1035870  24.0084720
  49.9878460  41.5475590  17.0922400  50.8758080  41.8592820  16.9173740
  49.9583550  40.6747840  16.7002980  41.0969550  46.4533000  22.4983270
  41.6148220  45.6501260  22.4440160  40.6453570  46.3912140  23.3400100
  45.9839050  47.7199280  17.7710570  46.3254750  48.4641510  17.2753890
  45.1551760  48.0330400  18.1335400  52.2592730  42.8587430  16.5602260
  52.1756450  43.2901650  15.7098700  52.9786920  43.3185780  16.9929080
  53.3366870  45.3154950  29.6372230  52.6115060  45.9083730  29.4401620
  53.8642330  45.3078490  28.8385600  53.2879980  49.7129690  19.2884390
  52.6456140  49.0585310  19.5628110  52.9010640  50.1184780  18.5125060
  48.8666460  47.0415120  23.1356080  49.2190280  46.4443250  22.4757450
  47.9828790  46.7159350  23.3064330  44.9529740  47.8012810  20.5426490
  45.6400870  48.3482020  20.9234080  44.1662160  48.3453540  20.5776100
  44.2556950  44.8058840  20.1551850  44.7119730  45.6164090  20.3812040
  43.9045160  44.4881980  20.9870340  46.5589560  50.3165180  27.3844150
  47.2031780  50.5224560  28.0617570  46.9219000  49.5553580  26.9315000
  47.8321640  48.3197530  26.1021600  48.4743870  47.6190690  26.2153770
  48.3570990  49.0995970  25.9218490  51.6777360  48.6046150  15.8260740
  51.4514940  47.8876590  16.4185380  51.2873560  48.3558590  14.9882490
  49.6059260  49.1192430  29.3057660  49.9415500  49.7059120  29.9835580
  48.6859600  48.9885140  29.5355450  37.4593390  52.6313010  16.6005200
  37.8191030  53.2302350  15.9462470  37.3185730  53.1772900  17.3740230
  51.2593610  46.5218090  17.4874900  50.9715310  46.9830780  18.2752780
  52.0545780  46.0615860  17.7559120  37.4435250  50.8967870  31.0747600
  37.5526370  49.9562610  30.9342990  36.7915810  51.1622620  30.4261330
  43.4762010  50.0144210  17.4178870  43.4672110  50.7473900  16.8023380
  42.5560370  49.7675790  17.5105830  52.0163470  38.3566860  18.6470080
  51.3876630  38.4612530  17.9328310  51.5215390  38.5763640  19.4363960
  46.4621610  50.0772450  16.0804060  46.5633590  49.8736440  15.1506040
  45.5623350  49.8230730  16.2851840  43.9847500  40.6352810  20.0627960
  43.2763650  41.1039150  20.5041570  44.2691980  39.9774820  20.6973150
  45.1039720  52.5958770  20.7751730  45.3581220  52.5580160  19.8531100
  44.1552200  52.4692100  20.7679980  51.1092300  43.5150650  22.3510240
  50.1682440  43.5300880  22.5257930  51.4236370  42.7286610  22.7970540
  41.0873940  45.1970250  15.9114200  41.8537210  45.0851610  16.4739630
  41.1648630  44.5008220  15.2590970  53.1117880  50.6859500  24.0264500
  53.2365300  51.5090670  24.4988310  53.9783440  50.4750230  23.6788650
  40.5835410  52.7790710  23.6981630  41.3197890  52.2306170  23.9690200
  40.9676330  53.6446720  23.5587620  37.4680890  48.8464280  19.5723140
  36.5420670  49.0885420  19.5628550  37.9337320  49.6738540  19.4507890
  39.5893690  51.9636780  32.8867210  40.3906420  52.2848830  33.3002610
  39.0745510  51.6032360  33.6087120  43.6937720  51.9521020  15.5207200
  44.4866330  52.2409850  15.0688990  43.1742070  51.5213190  14.8419680
  49.8558690  51.7996940  31.4452030  50.8080440  51.7154960  31.3952270
  49.7086910  52.4638650  32.1185820  52.7467890  51.1791150  16.9443940
  52.4609400  50.7656290  16.1298120  52.5487440  52.1078860  16.8244460
  44.2115120  47.1724430  15.3849550  44.1065760  46.5576780  16.1110930
  44.0439340  46.6490320  14.6012560  47.4517850  46.2344460  15.9891540
  46.9027950  46.6813760  16.6334280  48.0737110  45.7293710  16.5129210
  51.5052790  47.5886560  31.9213800  52.2462260  47.9262320  31.4181260
  50.7425470  47.7578620  31.3683570  43.1192970  45.1935380  17.8856840
  43.5409390  45.0275250  18.7288230  43.2443810  44.3835610  17.3911980
  45.6320610  44.2172990  15.1333940  46.1526270  43.5022010  14.7675090
  46.2789010  44.8558860  15.4334450  50.1798450  45.6401390  30.4569010
  50.5939470  45.7946470  31.3059430  49.2449450  45.7656610  30.6194790
  50.6520620  42.9797550  32.4608160  51.2341390  42.2249870  32.3728640
  50.8282390  43.5104990  31.6839640  49.6165480  43.8775240  28.3865290
  49.0900700  44.4017860  27.7830430  49.9596820  44.5102630  29.0175020
  42.0151870  41.2668610  14.8315000  41.8140930  40.4035970  15.1928340
  41.8443920  41.1801970  13.8936600  42.7921100  51.8974880  29.5422670
  42.2542190  52.6220940  29.2231370  43.0455060  51.4205220  28.7520010
  40.8134670  38.3669230  14.8192880  41.1160570  38.3736660  13.9112030
  41.5529260  38.0167090  15.3160540  45.6483310  53.1326090  29.8009320
  45.5742010  54.0361230  30.1081690  44.7462150  52.8137990  29.7731390
  44.0319600  37.3103850  15.8049080  43.6841600  36.6327840  15.2251530
  44.2332370  36.8493360  16.6192470  46.1968640  52.2984600  17.4235680
  47.0919430  52.6369570  17.4454440  46.2286270  51.5764010  16.7959960
  39.8364800  47.6711650  15.6522680  40.2739670  48.2141320  16.3080260
  40.3212530  46.8458600  15.6619020  37.0510600  50.4600680  23.1042940
  37.3813610  49.5921740  22.8721580  37.4801600  50.6659200  23.9347900
  41.6472520  48.7909690  20.7644910  41.3468060  48.6674660  21.6648820
  41.5410010  47.9318280  20.3560640  37.5400810  51.3271270  25.8424570
  37.1031800  51.5072070  26.6748720  38.1078490  52.0845890  25.7006290
  53.1762990  50.8288270  30.1301880  52.5764980  50.8880830  29.3865800
  53.3056890  49.8893250  30.2598730  54.4164440  48.5706090  15.4671590
  53.5857400  48.6382740  15.9378820  54.5936270  49.4610210  15.1638450
  53.8720900  45.3153570  17.9705790  54.6339810  45.8850220  18.0765480
  53.8875270  44.7480770  18.7414100  54.8780870  46.1703670  22.8147720
  55.2489700  45.3870990  22.4083690  55.5182800  46.8592770  22.6365020
  51.8614630  47.5540250  28.2278040  51.0474470  47.9837410  28.4903830
  52.2688830  48.1658660  27.6147090  53.9240070  45.6087940  15.1278310
  54.1988910  46.5166820  14.9997530  53.7350810  45.5450470  16.0640300
  50.3215680  38.6332790  16.4231940  50.7400560  38.4463770  15.5828600
  50.0151740  37.7811840  16.7334870  53.8205410  43.5456930  20.1207740
  53.4449010  42.7784860  19.6889030  53.0908530  43.9279630  20.6082670
  53.2105030  42.6928450  29.7547260  52.9791120  42.4641200  28.8545210
  53.4709580  43.6128000  29.7092150  53.0956370  41.7714420  23.4214980
  53.6193850  41.2777070  22.7905150  53.6815790  41.9064780  24.1662550
  53.2746090  41.8554290  26.9434530  52.3248800  41.8217830  27.0579520
  53.4559100  42.7654400  26.7084300  52.5856340  41.0287770  19.3607390
  53.0815460  40.7958640  20.1456270  52.3872410  40.1899610  18.9445030
  54.0143500  39.6648720  21.8945070  53.9042780  39.5104760  22.8327340
  54.7751090  39.1369660  21.6520480  54.9033770  37.4956640  15.1351210
  55.8283080  37.3637820  14.9269500  54.8809560  37.5749460  16.0887660
  54.9772260  38.2667300  17.7607920  54.1823760  38.2012420  18.2900830
  55.1815540  39.2017940  17.7493270  51.9190680  52.3058850  21.7546310
  52.5149750  51.9843420  21.0780730  52.1768830  51.8330670  22.5459580
  43.5259280  50.2936350  27.5046660  43.2850640  50.5610910  26.6177180
  44.4661920  50.4642080  27.5597520  54.7863440  52.3130730  28.3057300
  54.2921720  52.7099600  27.5884430  54.1776730  51.6879940  28.6994580
  39.6641280  51.6839010  29.0234720  39.0701600  51.5523710  29.7624760
  39.6565120  50.8477150  28.5576820  52.4702890  52.9554150  25.5844040
  52.0105860  53.7069960  25.2102060  51.8415350  52.2360620  25.5258840
  39.2953510  49.0497390  27.9742760  38.5687570  48.4302680  27.9068710
  39.3562660  49.4438000  27.1040840  42.8998610  51.2642390  24.7592170
  43.4163630  50.6529750  24.2340430  43.5495990  51.7671170  25.2503180
  45.6394110  52.1550880  25.5861150  45.9271920  51.9005180  24.7094160
  46.1517330  51.6028240  26.1766720  37.5783510  52.3671780  21.1839520
  37.4105550  51.7342460  21.8821410  36.7118020  52.5731180  20.8333710
  39.1846210  51.0605010  18.6289660  38.6593830  51.4413040  17.9251620
  39.1090790  51.6855780  19.3499370  45.7066470  53.0766980  32.9529350
  46.6333780  52.8411250  32.9965310  45.6916900  53.9038980  32.4715380
  53.9411530  52.6192550  19.9503600  54.1163720  51.9330290  19.3064520
  53.2433100  53.1439600  19.5580270  41.7839180  53.0087390  17.5038910
  42.5158000  52.7246670  16.9562800  42.0432850  52.7700670  18.3938290
  40.9453970  49.1252120  17.5085240  40.3162850  49.5937220  18.0571070
  41.0601800  48.2801340  17.9431430  52.2744030  52.3036840  32.7770390
  53.0669350  51.8086070  32.5696350  52.5677180  52.9826980  33.3846000
  48.4003690  43.1757780   3.6586440  48.3197740  42.2612390   3.3878150
  47.9868110  43.6724850   2.9526150  46.5321730  44.9536800   5.5395710
  45.7563830  44.4737240   5.8294280  47.1834660  44.2742450   5.3651870
  40.5487560  45.2656610   6.4171470  39.7172440  45.0105320   6.8167980
  41.1568540  45.3367380   7.1529390  50.5529160  49.3596990   4.3194840
  50.0910690  48.5884230   4.6482010  51.3654710  49.3863060   4.8247290
  40.5288820  49.2996700   6.6129490  40.8316860  48.4094440   6.4339710
  41.2732410  49.8566920   6.3851740  36.9212520  42.8264150   6.0853560
  37.4928630  42.0586350   6.0857200  36.9214060  43.1252910   5.1760170
  46.7792470  51.6455000   3.9398830  46.1603910  52.1012500   3.3693270
  47.6344250  51.8006460   3.5388530  45.9730720  47.6293990   5.5465870
  45.9039000  46.6883930   5.3855000  46.7350580  47.7195400   6.1188440
  38.1637390  38.2348510   7.8722490  37.9840230  37.3374260   8.1525250
  37.7617470  38.7820380   8.5469440  47.0035890  40.4364370   5.7734800
  47.3800710  39.5636250   5.6608470  46.9055400  40.7723070   4.8825240
  50.7860010  37.9314810   2.7063140  51.6069630  37.4411380   2.7488620
  50.8194090  38.5212470   3.4594980  38.7824060  40.7309010   6.4804830
  39.4634170  40.9947380   7.0992230  38.4672110  39.8909880   6.8142840
  42.9748630  41.7776370   5.5677420  43.4826850  42.2757340   6.2082440
  43.5061870  41.0011570   5.3916780  55.0759560  39.9481560   9.2706770
  54.3711730  40.3363270   8.7521880  55.3417480  40.6431850   9.8727700
  41.2584730  36.4174930   9.8340840  41.2603170  36.9347320   9.0286740
  40.4289040  35.9405110   9.8110770  42.5087580  46.0570110   8.0114340
  42.1756960  46.6839030   8.6535410  42.6854260  46.5831990   7.2316010
  51.0221490  39.8715190   5.4790680  50.3177060  40.1600080   6.0593790
  51.3833650  40.6815300   5.1190240  40.9400060  38.1284890   7.8411290
  41.2816870  38.9726940   7.5465160  40.0015870  38.2768630   7.9576630
  41.7206680  48.0250910   9.8263520  42.3380680  48.7001990   9.5447970
  40.8599800  48.4338890   9.7351020  52.6384270  49.4890320   7.7418160
  51.9547790  50.1589430   7.7334830  53.1778560  49.6870970   6.9763020
  54.0908410  39.3169980   5.8699890  53.1433320  39.3508960   6.0015320
  54.4158400  40.1308930   6.2549250  44.6227950  35.6167160   4.1655880
  44.9302930  35.0614050   3.4491380  43.6928650  35.7511620   3.9828870
  50.1743010  51.3334450   6.4563340  50.1870170  50.9296740   5.5885600
  49.6218230  52.1081740   6.3524770  49.5728450  46.2364290   7.7845950
  49.9897240  46.0224400   6.9499410  50.2968270  46.4937080   8.3554570
  53.5190550  44.6351510   7.8762190  52.6909180  44.7044600   7.4012320
  54.1141030  45.2205820   7.4078020  50.4832560  41.4220830   8.8217060
  50.0703740  42.2474540   9.0757050  49.7508510  40.8365870   8.6293420
  42.6165350  44.2080730   3.6835730  42.2122350  43.4957980   3.1881630
  42.7028470  43.8633970   4.5723770  43.0847050  47.8948290   5.8474940
  42.7875340  47.2893760   5.1682720  44.0346870  47.9325600   5.7364300
  41.3293970  40.9823940   7.4634770  41.8808560  41.0919280   6.6888020
  41.8437480  41.3561540   8.1790000  51.1732660  51.4680160   9.5098040
  50.6963220  52.2752350   9.3170650  50.4894450  50.8158490   9.6624250
  42.1765480  47.6329980  12.4982740  41.2794010  47.8569950  12.7456140
  42.2018350  47.7564920  11.5494140  41.0036700  44.5043300  11.0740110
  40.8644470  45.3766100  11.4427510  40.1218060  44.1616110  10.9288050
  47.3266080  49.4219170   2.3805240  47.7661990  50.1643500   1.9660630
  47.2652970  49.6645740   3.3044200  42.8017050  50.4465000  13.2825260
  42.7732480  50.8507950  12.4153690  42.6382020  49.5175360  13.1196860
  54.7531870  51.2292100  14.5789430  55.2291590  51.7074990  15.2578510
  55.3739030  51.1609590  13.8534930  36.9555350  46.2740850   6.9911020
  37.0335770  46.4089620   6.0466740  37.5697030  45.5656740   7.1839140
  38.2002980  47.9741040   3.4017200  37.7931060  48.1155630   2.5470800
  39.0915990  47.6901200   3.1988410  54.1565120  48.4204950  11.7389440
  54.2828180  48.1816830  10.8206620  54.1986500  47.5889490  12.2111520
  48.0181860  52.1232950  10.3084250  48.5326530  52.0340960  11.1106680
  47.1750940  52.4692650  10.6012160  49.2612320  51.5438560   2.3714740
  49.7169270  50.7627940   2.6853360  49.6004840  52.2545380   2.9155920
  54.0089130  40.4737410  12.7039180  53.3933400  40.9817080  12.1754640
  53.6885550  39.5735740  12.6465120  37.0114870  47.3155020   9.5305480
  37.1745910  46.8460380   8.7124850  37.4767320  46.8078580  10.1954320
  41.7833640  36.4460780   4.5666050  41.3401790  37.2270320   4.2350570
  42.3418630  36.7690670   5.2736990  46.0703450  39.3129300  10.1701370
  45.6082820  39.5212320  10.9821310  45.6681560  38.4988650   9.8672040
  51.0707960  40.5338250  11.2998030  50.2201550  40.2344000  11.6207100
  50.9109750  40.7780260  10.3881850  48.1657670  42.0340000  13.3996820
  48.4911080  41.2003750  13.0599050  48.9538000  42.5568520  13.5475150
  43.8209540  36.9908110   6.4255650  44.1181870  37.8970940   6.3447670
  44.3695100  36.5026890   5.8115220  41.5747860  41.5694350   2.2947300
  41.3488780  41.3531520   3.1993920  40.7940390  42.0022810   1.9493270
  44.0147070  42.4679930  12.9607570  43.9190670  41.5274660  12.8107970
  44.8579050  42.6895000  12.5655640  47.4110490  40.2121260   2.9241230
  47.8040060  40.5293460   2.1109920  47.7727340  39.3333140   3.0385750
  39.1457610  38.8793600  11.1141350  38.7521000  39.7268810  11.3214130
  38.4576010  38.2419970  11.3049990  45.7202660  38.9628570  14.1838090
  45.0300980  38.7700770  14.8184180  46.4634960  39.2463210  14.7162390
  36.4474660  36.8022060   5.1471430  36.1587710  37.3724920   5.8596410
  37.1920420  36.3226510   5.5102660  47.9965630  42.8027010   7.0192010
  47.2646750  43.3113820   7.3682110  47.5989970  41.9856990   6.7180790
  44.4343020  39.4781210   5.4244500  44.4379080  39.0371160   4.5749040
  45.3294140  39.7998540   5.5316320  40.2845400  39.3607700   4.3838710
  39.9445450  39.8382930   5.1405760  39.5222720  38.9072820   4.0239810
  48.4591540  38.2560690   6.4314950  48.4764280  38.7069340   7.2756800
  48.2107120  37.3566330   6.6448390  51.8862290  35.6692870  12.2701330
  52.2108060  34.9382530  12.7959310  51.9218800  35.3506510  11.3682320
  38.5853850  46.6906450  11.6901290  38.2008640  46.0500120  12.2884250
  38.8966040  47.3942570  12.2596020  44.7350990  43.5382990   7.1709910
  45.1021120  43.0641560   7.9171250  44.5456050  44.4124560   7.5118250
  37.5991480  38.2826680   3.3003380  37.3138400  37.9182350   4.1382000
  37.5370340  37.5507140   2.6866520  42.5250360  42.5791630   9.4894120
  42.2207430  43.4583610   9.7144480  43.4796820  42.6391420   9.5251560
  51.8120130  45.7817980   5.8787360  52.5319250  46.2773270   5.4883470
  51.6101950  45.1035870   5.2341230  47.1938930  45.8527040  11.7656360
  47.1276240  44.9322710  11.5113950  46.5644070  45.9502480  12.4801000
  41.0969550  46.4533000   3.7239780  41.6148220  45.6501260   3.6696670
  40.6453570  46.3912140   4.5656610  38.5814090  43.4194370  10.6365480
  38.2229030  44.0848220  11.2238820  38.2868650  42.5877920  11.0078100
  41.7827210  43.8778610  13.5205030  41.4827350  44.0235790  12.6232850
  42.5538450  43.3183900  13.4278420  47.1255660  48.6747610  11.5160160
  47.1400200  47.7428570  11.2979070  46.4180760  48.7607370  12.1549930
  53.3366870  45.3154950  10.8628740  52.6115060  45.9083730  10.6658130
  53.8642330  45.3078490  10.0642110  48.8666460  47.0415120   4.3612590
  49.2190280  46.4443250   3.7013960  47.9828790  46.7159350   4.5320840
  44.9529740  47.8012810   1.7683000  45.6400870  48.3482020   2.1490590
  44.1662160  48.3453540   1.8032610  46.5589560  50.3165180   8.6100660
  47.2031780  50.5224560   9.2874080  46.9219000  49.5553580   8.1571510
  47.8321640  48.3197530   7.3278110  48.4743870  47.6190690   7.4410280
  48.3570990  49.0995970   7.1475000  49.6059260  49.1192430  10.5314170
  49.9415500  49.7059120  11.2092090  48.6859600  48.9885140  10.7611960
  37.1562660  36.9087610  11.3137580  36.4421180  37.1084530  11.9190190
  37.5757700  36.1327180  11.6852380  37.4435250  50.8967870  12.3004110
  37.5526370  49.9562610  12.1599500  36.7915810  51.1622620  11.6517840
  45.4347840  49.1683760  13.7002230  45.1144710  48.4493000  14.2447920
  44.7606200  49.8438830  13.7738290  48.6501440  39.4009920   9.0639030
  49.0182260  38.5805130   9.3918600  47.7899640  39.4611810   9.4794680
  45.6103430  42.0549510   9.2877000  46.1088680  42.5295330   9.9528850
  45.7526380  41.1313030   9.4947030  48.0162930  37.3603470   2.7280260
  47.8930710  37.3789600   1.7789770  48.9647490  37.4082410   2.8478660
  52.8170290  38.2717470  10.1305390  52.3143890  39.0122870  10.4699200
  53.6326950  38.6601470   9.8142180  51.1092300  43.5150650   3.5766750
  50.1682440  43.5300880   3.7514440  51.4236370  42.7286610   4.0227050
  53.1117880  50.6859500   5.2521010  53.2365300  51.5090670   5.7244820
  53.9783440  50.4750230   4.9045160  40.5835410  52.7790710   4.9238140
  41.3197890  52.2306170   5.1946710  40.9676330  53.6446720   4.7844130
  39.5893690  51.9636780  14.1123720  40.3906420  52.2848830  14.5259120
  39.0745510  51.6032360  14.8343630  48.4258320  48.0716650  14.0599130
  47.8196480  48.0948250  13.3194880  48.1212430  47.3399690  14.5966380
  49.8558690  51.7996940  12.6708540  50.8080440  51.7154960  12.6208780
  49.7086910  52.4638650  13.3442330  37.3091500  44.4510240  13.0559770
  37.8130520  43.8717520  13.6276000  36.5698920  44.7350470  13.5936140
  44.3629440  45.8581230  12.5895290  43.5975110  46.4266230  12.5049960
  44.5445400  45.5657440  11.6963520  51.5052790  47.5886560  13.1470310
  52.2462260  47.9262320  12.6437770  50.7425470  47.7578620  12.5940080
  39.3414580  42.5939830  13.9509840  39.3819920  42.2953700  14.8595070
  40.1960080  42.9947440  13.7917360  41.2820390  41.1731930  11.9184330
  40.7516850  40.6822880  11.2907670  41.9508460  41.6016130  11.3842260
  50.1798450  45.6401390  11.6825520  50.5939470  45.7946470  12.5315940
  49.2449450  45.7656610  11.8451300  50.6520620  42.9797550  13.6864670
  51.2341390  42.2249870  13.5985150  50.8282390  43.5104990  12.9096150
  41.7692690  38.1394300  11.9981620  41.6749560  37.5215050  11.2732490
  41.1890080  38.8660590  11.7711530  44.5354130  36.6967540   9.0309010
  44.0871430  36.7191800   8.1854560  43.9019330  36.2986560   9.6279310
  44.9413680  45.5921870   9.6521450  45.3601790  46.4354600   9.4797690
  44.0222310  45.7293910   9.4228230  47.2777580  43.3238050  11.0359290
  47.3973790  42.7279190  11.7754130  48.1371580  43.3607740  10.6160590
  49.6165480  43.8775240   9.6121800  49.0900700  44.4017860   9.0086940
  49.9596820  44.5102630  10.2431530  42.7921100  51.8974880  10.7679180
  42.2542190  52.6220940  10.4487880  43.0455060  51.4205220   9.9776520
  44.0446350  39.8659400  12.2935110  44.6346040  39.5575250  12.9812930
  43.2266590  39.3939150  12.4495010  48.8639780  39.4825210  12.5268130
  48.1755300  38.8206750  12.4618120  49.5845800  39.0363480  12.9716590
  45.6483310  53.1326090  11.0265830  45.5742010  54.0361230  11.3338200
  44.7462150  52.8137990  10.9987900  37.0510600  50.4600680   4.3299450
  37.3813610  49.5921740   4.0978090  37.4801600  50.6659200   5.1604410
  37.5400810  51.3271270   7.0681080  37.1031800  51.5072070   7.9005230
  38.1078490  52.0845890   6.9262800  53.1762990  50.8288270  11.3558390
  52.5764980  50.8880830  10.6122310  53.3056890  49.8893250  11.4855240
  37.3725240  43.8391500   3.4269960  36.7174080  43.5703140   2.7829660
  38.2103190  43.7295980   2.9771940  54.8780870  46.1703670   4.0404230
  55.2489700  45.3870990   3.6340200  55.5182800  46.8592770   3.8621530
  51.8614630  47.5540250   9.4534550  51.0474470  47.9837410   9.7160340
  52.2688830  48.1658660   8.8403600  38.4101170  44.2244070   7.9673300
  38.7774210  44.1371470   8.8469320  37.8411990  43.4610620   7.8680160
  53.2105030  42.6928450  10.9803770  52.9791120  42.4641200  10.0801720
  53.4709580  43.6128000  10.9348660  37.9617170  41.1353160  11.8731720
  37.0673220  41.1019920  12.2125430  38.5014720  41.3339950  12.6382970
  51.6493100  37.9184880  13.7583470  52.5263280  37.9268280  14.1417470
  51.6613940  37.1815720  13.1475820  53.0956370  41.7714420   4.6471490
  53.6193850  41.2777070   4.0161660  53.6815790  41.9064780   5.3919060
  53.2746090  41.8554290   8.1691040  52.3248800  41.8217830   8.2836030
  53.4559100  42.7654400   7.9340810  38.4656880  35.4101490   6.2214940
  39.1133070  34.8598870   5.7810100  38.8858720  35.6644640   7.0430750
  54.0143500  39.6648720   3.1201580  53.9042780  39.5104760   4.0583850
  54.7751090  39.1369660   2.8776990  52.3609220  35.6042850   9.5784580
  52.9981440  36.2176990   9.9443770  52.5084110  35.6403510   8.6333810
  51.9190680  52.3058850   2.9802820  52.5149750  51.9843420   2.3037240
  52.1768830  51.8330670   3.7716090  38.2188880  35.5657160   8.9640260
  37.8703700  36.0220980   9.7298440  37.8876580  34.6714290   9.0462690
  39.8253250  48.7376760  13.1293450  39.7822880  48.3669670  14.0107910
  39.9564260  49.6754330  13.2695270  43.5259280  50.2936350   8.7303170
  43.2850640  50.5610910   7.8433690  44.4661920  50.4642080   8.7854030
  45.7313700  36.7569040  12.4859680  45.6702590  37.3490870  13.2355090
  46.6714080  36.6495000  12.3409940  48.3688260  36.4139100  12.1251970
  48.9828670  36.7318390  11.4633050  48.9137820  35.9287690  12.7447830
  54.7863440  52.3130730   9.5313810  54.2921720  52.7099600   8.8140940
  54.1776730  51.6879940   9.9251090  38.8909520  35.0933360  12.2391030
  39.4392510  34.9121410  11.4757140  38.9564830  34.3027470  12.7747340
  39.6641280  51.6839010  10.2491230  39.0701600  51.5523710  10.9881270
  39.6565120  50.8477150   9.7833330  49.1096300  34.9771240   8.4521260
  48.2356140  35.3106350   8.2494190  49.0007050  34.5044420   9.2773130
  50.0168280  37.1842110   9.8362980  49.6881640  36.3693870   9.4564710
  50.9650580  37.1411920   9.7128670  52.4702890  52.9554150   6.8100550
  52.0105860  53.7069960   6.4358570  51.8415350  52.2360620   6.7515350
  39.2953510  49.0497390   9.1999270  38.5687570  48.4302680   9.1325220
  39.3562660  49.4438000   8.3297350  42.8998610  51.2642390   5.9848680
  43.4163630  50.6529750   5.4596940  43.5495990  51.7671170   6.4759690
  45.6394110  52.1550880   6.8117660  45.9271920  51.9005180   5.9350670
  46.1517330  51.6028240   7.4023230  46.8571120  35.8941080   7.3914170
  46.0742910  36.3686580   7.6710930  46.5634050  34.9895910   7.2827350
  51.4092190  36.5964180   5.4363260  51.8500280  36.5409280   4.5884860
  51.1399780  37.5122190   5.5073440  53.2730760  36.2279420   3.4472080
  53.2119160  35.2840640   3.3003100  54.0522790  36.3359510   3.9925540
  37.5783510  52.3671780   2.4096030  37.4105550  51.7342460   3.1077920
  36.7118020  52.5731180   2.0590220  44.7425340  38.3127830   2.9030200
  43.9299850  37.9384720   2.5626080  45.2466980  37.5572910   3.2051390
  49.2450320  34.9770280   4.1413270  49.8479690  35.5490490   4.6161790
  48.5043310  35.5409720   3.9187170  45.7066470  53.0766980  14.1785860
  46.6333780  52.8411250  14.2221820  45.6916900  53.9038980  13.6971890
  42.8930080  35.7411730  13.9427740  42.6114350  36.2445330  13.1788560
  43.2749780  34.9433480  13.5769870  49.4945540  35.1565310  14.5208210
  49.3810990  35.4759920  15.4159730  50.3115280  35.5577820  14.2245490
  52.2744030  52.3036840  14.0026900  53.0669350  51.8086070  13.7952860
  52.5677180  52.9826980  14.6102510  48.4003690  24.4014290  78.7560400
  48.3197740  23.4868900  78.4852110  47.9868110  24.8981360  78.0500110
  46.5321730  26.1793310  80.6369670  45.7563830  25.6993750  80.9268240
  47.1834660  25.4998960  80.4625830  40.5487560  26.4913120  81.5145430
  39.7172440  26.2361830  81.9141940  41.1568540  26.5623890  82.2503350
  50.5529160  30.5853500  79.4168800  50.0910690  29.8140740  79.7455970
  51.3654710  30.6119570  79.9221250  40.5288820  30.5253210  81.7103450
  40.8316860  29.6350950  81.5313670  41.2732410  31.0823430  81.4825700
  38.9579510  21.4515010  75.2987820  38.0696210  21.7930980  75.1967700
  39.2420700  21.2515330  74.4068650  36.9212520  24.0520660  81.1827520
  37.4928630  23.2842860  81.1831160  36.9214060  24.3509420  80.2734130
  46.7792470  32.8711510  79.0372790  46.1603910  33.3269010  78.4667230
  47.6344250  33.0262970  78.6362490  45.9730720  28.8550500  80.6439830
  45.9039000  27.9140440  80.4828960  46.7350580  28.9451910  81.2162400
  38.1637390  19.4605020  82.9696450  37.9840230  18.5630770  83.2499210
  37.7617470  20.0076890  83.6443400  47.0035890  21.6620880  80.8708760
  47.3800710  20.7892760  80.7582430  46.9055400  21.9979580  79.9799200
  41.1340900  20.0346510  76.3326200  41.2407650  20.9350240  76.6394960
  40.2233260  19.9864480  76.0420850  50.7860010  19.1571320  77.8037100
  51.6069630  18.6667890  77.8462580  50.8194090  19.7468980  78.5568940
  38.7824060  21.9565520  81.5778790  39.4634170  22.2203890  82.1966190
  38.4672110  21.1166390  81.9116800  42.9748630  23.0032880  80.6651380
  43.4826850  23.5013850  81.3056400  43.5061870  22.2268080  80.4890740
  47.6455820  27.7550750  76.4304700  47.0273090  28.2200200  75.8667420
  48.1579070  28.4478230  76.8474210  42.5087580  27.2826620  83.1088300
  42.1756960  27.9095540  83.7509370  42.6854260  27.8088500  82.3289970
  51.0221490  21.0971700  80.5764640  50.3177060  21.3856590  81.1567750
  51.3833650  21.9071810  80.2164200  40.9400060  19.3541400  82.9385250
  41.2816870  20.1983450  82.6439120  40.0015870  19.5025140  83.0550590
  37.0139020  28.4407280  73.8044330  36.6367000  28.9294380  73.0729230
  37.2712090  29.1132560  74.4350860  52.6384270  30.7146830  82.8392120
  51.9547790  31.3845940  82.8308790  53.1778560  30.9127480  82.0736980
  54.0908410  20.5426490  80.9673850  53.1433320  20.5765470  81.0989280
  54.4158400  21.3565440  81.3523210  44.6227950  16.8423670  79.2629840
  44.9302930  16.2870560  78.5465340  43.6928650  16.9768130  79.0802830
  50.1743010  32.5590960  81.5537300  50.1870170  32.1553250  80.6859560
  49.6218230  33.3338250  81.4498730  51.4688430  29.2807180  76.6427470
  51.3584760  28.3381510  76.7676890  51.4656680  29.6422820  77.5290230
  49.5728450  27.4620800  82.8819910  49.9897240  27.2480910  82.0473370
  50.2968270  27.7193590  83.4528530  47.0108710  24.9072500  75.9989960
  46.0837990  24.8409880  76.2278430  47.1633530  25.8452630  75.8845200
  46.9977790  21.1789500  72.9957120  46.0581460  21.3403460  73.0809580
  47.3161050  21.8975180  72.4493110  53.5190550  25.8608020  82.9736150
  52.6909180  25.9301110  82.4986280  54.1141030  26.4462330  82.5051980
  51.0406000  26.4692800  76.5025210  50.4218420  26.1312350  75.8551510
  51.0230450  25.8252560  77.2104400  42.6165350  25.4337240  78.7809690
  42.2122350  24.7214490  78.2855590  42.7028470  25.0890480  79.6697730
  43.0847050  29.1204800  80.9448900  42.7875340  28.5150270  80.2656680
  44.0346870  29.1582110  80.8338260  41.3293970  22.2080450  82.5608730
  41.8808560  22.3175790  81.7861980  41.8437480  22.5818050  83.2763960
  49.2170700  25.7079610  73.5097960  49.6563980  24.8702040  73.3635780
  49.9299120  26.3409010  73.5962100  47.3266080  30.6475680  77.4779200
  47.7661990  31.3900010  77.0634590  47.2652970  30.8902250  78.4018160
  52.7987840  16.9622420  71.8239000  52.4860500  17.0549250  72.7238070
  53.5600310  17.5403450  71.7736430  39.3169980  24.3282220  76.2816340
  39.1967580  25.0544310  75.6697610  39.0070870  23.5585130  75.8044250
  36.9555350  27.4997360  82.0884980  37.0335770  27.6346130  81.1440700
  37.5697030  26.7913250  82.2813100  38.2002980  29.1997550  78.4991160
  37.7931060  29.3412140  77.6444760  39.0915990  28.9157710  78.2962370
  49.9936260  33.6344800  74.8342210  49.8337400  33.3447740  75.7324040
  49.8282970  32.8584930  74.2987440  42.4724640  33.4143330  76.6113830
  42.2967120  32.4978870  76.3981630  41.6180380  33.7730620  76.8511630
  49.6962390  31.1432360  73.3940210  49.0027550  31.1409650  72.7342490
  50.4385250  30.7191680  72.9634380  49.2612320  32.7695070  77.4688700
  49.7169270  31.9884450  77.7827320  49.6004840  33.4801890  78.0129880
  41.7833640  17.6717290  79.6640010  41.3401790  18.4526830  79.3324530
  42.3418630  17.9947180  80.3710950  44.8992460  17.2927990  74.5445840
  44.2746640  17.2887860  75.2699150  44.8122580  16.4258950  74.1481810
  43.8209540  18.2164620  81.5229610  44.1181870  19.1227450  81.4421630
  44.3695100  17.7283400  80.9089180  41.5747860  22.7950860  77.3921260
  41.3488780  22.5788030  78.2967880  40.7940390  23.2279320  77.0467230
  48.8045620  22.8014230  75.9911910  48.2054510  23.5250030  75.8075530
  49.3525230  22.7391010  75.2088360  47.4110490  21.4377770  78.0215190
  47.8040060  21.7549970  77.2083880  47.7727340  20.5589650  78.1359710
  36.4474660  18.0278570  80.2445390  36.1587710  18.5981430  80.9570370
  37.1920420  17.5483020  80.6076620  36.6344890  21.9698690  71.4548110
  36.5519560  22.9129450  71.5963100  36.2827950  21.8273600  70.5760460
  47.9965630  24.0283520  82.1165970  47.2646750  24.5370330  82.4656070
  47.5989970  23.2113500  81.8154750  44.4343020  20.7037720  80.5218460
  44.4379080  20.2627670  79.6723000  45.3294140  21.0255050  80.6290280
  40.2845400  20.5864210  79.4812670  39.9445450  21.0639440  80.2379720
  39.5222720  20.1329330  79.1213770  44.4963170  21.7049800  73.5125220
  44.6175990  21.6636280  74.4611040  44.1111680  22.5673950  73.3571950
  48.4591540  19.4817200  81.5288910  48.4764280  19.9325850  82.3730760
  48.2107120  18.5822840  81.7422350  43.5084670  24.0150940  72.9108520
  42.9401570  23.5669190  72.2844430  44.2173670  24.3743720  72.3773670
  44.7350990  24.7639500  82.2683870  45.1021120  24.2898070  83.0145210
  44.5456050  25.6381070  82.6092210  37.5991480  19.5083190  78.3977340
  37.3138400  19.1438860  79.2355960  37.5370340  18.7763650  77.7840480
  41.0532150  28.0109130  75.1834930  40.2794410  27.4706750  75.0233650
  41.7826780  27.4915740  74.8452690  51.8120130  27.0074490  80.9761320
  52.5319250  27.5029780  80.5857430  51.6101950  26.3292380  80.3315190
  47.2730070  18.4012450  75.1190710  46.4594680  17.9025620  75.0436020
  47.0792020  19.2410700  74.7027060  49.9878460  22.7732100  73.4152870
  50.8758080  23.0849330  73.2404210  49.9583550  21.9004350  73.0233450
  41.0969550  27.6789510  78.8213740  41.6148220  26.8757770  78.7670630
  40.6453570  27.6168650  79.6630570  45.9839050  28.9455790  74.0941040
  46.3254750  29.6898020  73.5984360  45.1551760  29.2586910  74.4565870
  52.2592730  24.0843940  72.8832730  52.1756450  24.5158160  72.0329170
  52.9786920  24.5442290  73.3159550  53.2879980  30.9386200  75.6114860
  52.6456140  30.2841820  75.8858580  52.9010640  31.3441290  74.8355530
  48.8666460  28.2671630  79.4586550  49.2190280  27.6699760  78.7987920
  47.9828790  27.9415860  79.6294800  44.9529740  29.0269320  76.8656960
  45.6400870  29.5738530  77.2464550  44.1662160  29.5710050  76.9006570
  37.0922140  24.6442140  72.3574040  37.9616990  24.9266940  72.6409960
  36.6012460  25.4578010  72.2422850  44.2556950  26.0315350  76.4782320
  44.7119730  26.8420600  76.7042510  43.9045160  25.7138490  77.3100810
  40.1568730  16.3753000  76.9504840  40.0283360  16.3670900  77.8989760
  39.3330750  16.7136090  76.5995850  47.8321640  29.5454040  82.4252070
  48.4743870  28.8447200  82.5384240  48.3570990  30.3252480  82.2448960
  37.4593390  33.8569520  72.9235670  37.8191030  34.4558860  72.2692940
  37.3185730  34.4029410  73.6970700  51.2593610  27.7474600  73.8105370
  50.9715310  28.2087290  74.5983250  52.0545780  27.2872370  74.0789590
  43.4762010  31.2400720  73.7409340  43.4672110  31.9730410  73.1253850
  42.5560370  30.9932300  73.8336300  39.0768650  26.4615610  74.4856100
  38.4696600  27.2014510  74.4951400  39.5518000  26.5514970  73.6594300
  52.0163470  19.5823370  74.9700550  51.3876630  19.6869040  74.2558780
  51.5215390  19.8020150  75.7594430  46.4621610  31.3028960  72.4034530
  46.5633590  31.0992950  71.4736510  45.5623350  31.0487240  72.6082310
  43.9847500  21.8609320  76.3858430  43.2763650  22.3295660  76.8272040
  44.2691980  21.2031330  77.0203620  48.0162930  18.5859980  77.8254220
  47.8930710  18.6046110  76.8763730  48.9647490  18.6338920  77.9452620
  45.1039720  33.8215280  77.0982200  45.3581220  33.7836670  76.1761570
  44.1552200  33.6948610  77.0910450  42.1882520  20.1694400  73.7609140
  43.0373050  20.6064550  73.6949330  41.8213790  20.4814660  74.5881200
  51.1092300  24.7407160  78.6740710  50.1682440  24.7557390  78.8488400
  51.4236370  23.9543120  79.1201010  41.0873940  26.4226760  72.2344670
  41.8537210  26.3108120  72.7970100  41.1648630  25.7264730  71.5821440
  39.7820700  23.8551830  72.9177560  39.8624290  22.9079340  73.0294960
  40.6740450  24.1858710  73.0238220  53.1117880  31.9116010  80.3494970
  53.2365300  32.7347180  80.8218780  53.9783440  31.7006740  80.0019120
  40.5835410  34.0047220  80.0212100  41.3197890  33.4562680  80.2920670
  40.9676330  34.8703230  79.8818090  37.4680890  30.0720790  75.8953610
  36.5420670  30.3141930  75.8859020  37.9337320  30.8995050  75.7738360
  43.6937720  33.1777530  71.8437670  44.4866330  33.4666360  71.3919460
  43.1742070  32.7469700  71.1650150  44.2115120  28.3980940  71.7080020
  44.1065760  27.7833290  72.4341400  44.0439340  27.8746830  70.9243030
  47.4517850  27.4600970  72.3122010  46.9027950  27.9070270  72.9564750
  48.0737110  26.9550220  72.8359680  43.1192970  26.4191890  74.2087310
  43.5409390  26.2531760  75.0518700  43.2443810  25.6092120  73.7142450
  45.6320610  25.4429500  71.4564410  46.1526270  24.7278520  71.0905560
  46.2789010  26.0815370  71.7564920  42.0151870  22.4925120  71.1545470
  41.8140930  21.6292480  71.5158810  41.8443920  22.4058480  70.2167070
  49.4940180  17.3033350  73.6832350  49.7742470  16.4601250  74.0391770
  48.7205910  17.5356460  74.1971100  40.8134670  19.5925740  71.1423350
  41.1160570  19.5993170  70.2342500  41.5529260  19.2423600  71.6391010
  44.0319600  18.5360360  72.1279550  43.6841600  17.8584350  71.5482000
  44.2332370  18.0749870  72.9422940  46.1968640  33.5241110  73.7466150
  47.0919430  33.8626080  73.7684910  46.2286270  32.8020520  73.1190430
  39.8364800  28.8968160  71.9753150  40.2739670  29.4397830  72.6310730
  40.3212530  28.0715110  71.9849490  37.0510600  31.6857190  79.4273410
  37.3813610  30.8178250  79.1952050  37.4801600  31.8915710  80.2578370
  41.6472520  30.0166200  77.0875380  41.3468060  29.8931170  77.9879290
  41.5410010  29.1574790  76.6791110  37.5400810  32.5527780  82.1655040
  37.1031800  32.7328580  82.9979190  38.1078490  33.3102400  82.0236760
  53.8720900  26.5410080  74.2936260  54.6339810  27.1106730  74.3995950
  53.8875270  25.9737280  75.0644570  37.3725240  25.0648010  78.5243920
  36.7174080  24.7959650  77.8803620  38.2103190  24.9552490  78.0745900
  54.8780870  27.3960180  79.1378190  55.2489700  26.6127500  78.7314160
  55.5182800  28.0849280  78.9595490  53.9240070  26.8344450  71.4508780
  54.1988910  27.7423330  71.3228000  53.7350810  26.7706980  72.3870770
  50.3215680  19.8589300  72.7462410  50.7400560  19.6720280  71.9059070
  50.0151740  19.0068350  73.0565340  53.8205410  24.7713440  76.4438210
  53.4449010  24.0041370  76.0119500  53.0908530  25.1536140  76.9313140
  36.5863320  22.2746940  74.4669250  35.6827400  22.5377140  74.2920910
  37.0703940  22.5458110  73.6869210  53.0956370  22.9970930  79.7445450
  53.6193850  22.5033580  79.1135620  53.6815790  23.1321290  80.4893020
  53.2746090  23.0810800  83.2665000  52.3248800  23.0474340  83.3809990
  53.4559100  23.9910910  83.0314770  39.1290530  21.3312480  72.3763630
  39.8382230  20.9095700  71.8910910  38.4130470  21.3987710  71.7446980
  38.7764690  17.3851810  71.4166280  39.4992820  17.9260750  71.7347500
  39.0489210  17.1115230  70.5407820  52.5856340  22.2544280  75.6837860
  53.0815460  22.0215150  76.4686740  52.3872410  21.4156120  75.2675500
  38.4656880  16.6358000  81.3188900  39.1133070  16.0855380  80.8784060
  38.8858720  16.8901150  82.1404710  54.0143500  20.8905230  78.2175540
  53.9042780  20.7361270  79.1557810  54.7751090  20.3626170  77.9750950
  54.9033770  18.7213150  71.4581680  55.8283080  18.5894330  71.2499970
  54.8809560  18.8005970  72.4118130  54.9772260  19.4923810  74.0838390
  54.1823760  19.4268930  74.6131300  55.1815540  20.4274450  74.0723740
  51.9190680  33.5315360  78.0776780  52.5149750  33.2099930  77.4011200
  52.1768830  33.0587180  78.8690050  52.4702890  34.1810660  81.9074510
  52.0105860  34.9326470  81.5332530  51.8415350  33.4617130  81.8489310
  42.8998610  32.4898900  81.0822640  43.4163630  31.8786260  80.5570900
  43.5495990  32.9927680  81.5733650  45.6394110  33.3807390  81.9091620
  45.9271920  33.1261690  81.0324630  46.1517330  32.8284750  82.4997190
  46.8571120  17.1197590  82.4888130  46.0742910  17.5943090  82.7684890
  46.5634050  16.2152420  82.3801310  51.4092190  17.8220690  80.5337220
  51.8500280  17.7665790  79.6858820  51.1399780  18.7378700  80.6047400
  53.2730760  17.4535930  78.5446040  53.2119160  16.5097150  78.3977060
  54.0522790  17.5616020  79.0899500  37.5783510  33.5928290  77.5069990
  37.4105550  32.9598970  78.2051880  36.7118020  33.7987690  77.1564180
  38.2011530  17.4245070  75.0101850  38.9590890  17.5373950  74.4365880
  37.7388700  18.2614270  74.9645280  44.7425340  19.5384340  78.0004160
  43.9299850  19.1641230  77.6600040  45.2466980  18.7829420  78.3025350
  49.2450320  16.2026790  79.2387230  49.8479690  16.7747000  79.7135750
  48.5043310  16.7666230  79.0161130  52.3884920  16.6048350  74.5127510
  52.5835550  17.5031800  74.7794940  51.6014790  16.3735430  75.0060460
  39.1846210  32.2861520  74.9520130  38.6593830  32.6669550  74.2482090
  39.1090790  32.9112290  75.6729840  40.5736680  17.9509120  73.5503820
  41.1029440  17.1638920  73.4211770  41.2065000  18.6300310  73.7839350
  42.7674520  17.6884260  76.6049210  42.1377260  16.9871570  76.7719340
  42.2279660  18.4488390  76.3882370  53.9411530  33.8449060  76.2734070
  54.1163720  33.1586800  75.6294990  53.2433100  34.3696110  75.8810740
  41.7839180  34.2343900  73.8269380  42.5158000  33.9503180  73.2793270
  42.0432850  33.9957180  74.7168760  40.9453970  30.3508630  73.8315710
  40.3162850  30.8193730  74.3801540  41.0601800  29.5057850  74.2661900
  48.4003690  24.4014290  59.9816910  48.3197740  23.4868900  59.7108620
  47.9868110  24.8981360  59.2756620  46.5321730  26.1793310  61.8626180
  45.7563830  25.6993750  62.1524750  47.1834660  25.4998960  61.6882340
  38.1637390  19.4605020  64.1952960  37.9840230  18.5630770  64.4755720
  37.7617470  20.0076890  64.8699910  47.0035890  21.6620880  62.0965270
  47.3800710  20.7892760  61.9838940  46.9055400  21.9979580  61.2055710
  41.1340900  20.0346510  57.5582710  41.2407650  20.9350240  57.8651470
  40.2233260  19.9864480  57.2677360  50.7860010  19.1571320  59.0293610
  51.6069630  18.6667890  59.0719090  50.8194090  19.7468980  59.7825450
  55.0759560  21.1738070  65.5937240  54.3711730  21.5619780  65.0752350
  55.3417480  21.8688360  66.1958170  41.2584730  17.6431440  66.1571310
  41.2603170  18.1603830  65.3517210  40.4289040  17.1661620  66.1341240
  42.5087580  27.2826620  64.3344810  42.1756960  27.9095540  64.9765880
  42.6854260  27.8088500  63.5546480  51.0221490  21.0971700  61.8021150
  50.3177060  21.3856590  62.3824260  51.3833650  21.9071810  61.4420710
  40.9400060  19.3541400  64.1641760  41.2816870  20.1983450  63.8695630
  40.0015870  19.5025140  64.2807100  54.0908410  20.5426490  62.1930360
  53.1433320  20.5765470  62.3245790  54.4158400  21.3565440  62.5779720
  44.6227950  16.8423670  60.4886350  44.9302930  16.2870560  59.7721850
  43.6928650  16.9768130  60.3059340  53.5190550  25.8608020  64.1992660
  52.6909180  25.9301110  63.7242790  54.1141030  26.4462330  63.7308490
  50.4832560  22.6477340  65.1447530  50.0703740  23.4731050  65.3987520
  49.7508510  22.0622380  64.9523890  41.0036700  25.7299810  67.3970580
  40.8644470  26.6022610  67.7657980  40.1218060  25.3872620  67.2518520
  52.7987840  16.9622420  53.0495510  52.4860500  17.0549250  53.9494580
  53.5600310  17.5403450  52.9992940  54.0089130  21.6993920  69.0269650
  53.3933400  22.2073590  68.4985110  53.6885550  20.7992250  68.9695590
  41.7833640  17.6717290  60.8896520  41.3401790  18.4526830  60.5581040
  42.3418630  17.9947180  61.5967460  46.0703450  20.5385810  66.4931840
  45.6082820  20.7468830  67.3051780  45.6681560  19.7245160  66.1902510
  51.0707960  21.7594760  67.6228500  50.2201550  21.4600510  67.9437570
  50.9109750  22.0036770  66.7112320  48.1657670  23.2596510  69.7227290
  48.4911080  22.4260260  69.3829520  48.9538000  23.7825030  69.8705620
  44.8992460  17.2927990  55.7702350  44.2746640  17.2887860  56.4955660
  44.8122580  16.4258950  55.3738320  43.8209540  18.2164620  62.7486120
  44.1181870  19.1227450  62.6678140  44.3695100  17.7283400  62.1345690
  48.8045620  22.8014230  57.2168420  48.2054510  23.5250030  57.0332040
  49.3525230  22.7391010  56.4344870  44.0147070  23.6936440  69.2838040
  43.9190670  22.7531170  69.1338440  44.8579050  23.9151510  68.8886110
  47.4110490  21.4377770  59.2471700  47.8040060  21.7549970  58.4340390
  47.7727340  20.5589650  59.3616220  39.1457610  20.1050110  67.4371820
  38.7521000  20.9525320  67.6444600  38.4576010  19.4676480  67.6280460
  45.7202660  20.1885080  70.5068560  45.0300980  19.9957280  71.1414650
  46.4634960  20.4719720  71.0392860  36.4474660  18.0278570  61.4701900
  36.1587710  18.5981430  62.1826880  37.1920420  17.5483020  61.8333130
  47.9965630  24.0283520  63.3422480  47.2646750  24.5370330  63.6912580
  47.5989970  23.2113500  63.0411260  48.4591540  19.4817200  62.7545420
  48.4764280  19.9325850  63.5987270  48.2107120  18.5822840  62.9678860
  51.8862290  16.8949380  68.5931800  52.2108060  16.1639040  69.1189780
  51.9218800  16.5763020  67.6912790  38.5853850  27.9162960  68.0131760
  38.2008640  27.2756630  68.6114720  38.8966040  28.6199080  68.5826490
  37.5991480  19.5083190  59.6233850  37.3138400  19.1438860  60.4612470
  37.5370340  18.7763650  59.0096990  47.2730070  18.4012450  56.3447220
  46.4594680  17.9025620  56.2692530  47.0792020  19.2410700  55.9283570
  47.1938930  27.0783550  68.0886830  47.1276240  26.1579220  67.8344420
  46.5644070  27.1758990  68.8031470  38.5814090  24.6450880  66.9595950
  38.2229030  25.3104730  67.5469290  38.2868650  23.8134430  67.3308570
  41.7827210  25.1035120  69.8435500  41.4827350  25.2492300  68.9463320
  42.5538450  24.5440410  69.7508890  53.3366870  26.5411460  67.1859210
  52.6115060  27.1340240  66.9888600  53.8642330  26.5335000  66.3872580
  40.1568730  16.3753000  58.1761350  40.0283360  16.3670900  59.1246270
  39.3330750  16.7136090  57.8252360  37.1562660  18.1344120  67.6368050
  36.4421180  18.3341040  68.2420660  37.5757700  17.3583690  68.0082850
  48.6501440  20.6266430  65.3869500  49.0182260  19.8061640  65.7149070
  47.7899640  20.6868320  65.8025150  52.0163470  19.5823370  56.1957060
  51.3876630  19.6869040  55.4815290  51.5215390  19.8020150  56.9850940
  45.6103430  23.2806020  65.6107470  46.1088680  23.7551840  66.2759320
  45.7526380  22.3569540  65.8177500  48.0162930  18.5859980  59.0510730
  47.8930710  18.6046110  58.1020240  48.9647490  18.6338920  59.1709130
  52.8170290  19.4973980  66.4535860  52.3143890  20.2379380  66.7929670
  53.6326950  19.8857980  66.1372650  48.4258320  29.2973160  70.3829600
  47.8196480  29.3204760  69.6425350  48.1212430  28.5656200  70.9196850
  37.3091500  25.6766750  69.3790240  37.8130520  25.0974030  69.9506470
  36.5698920  25.9606980  69.9166610  44.3629440  27.0837740  68.9125760
  43.5975110  27.6522740  68.8280430  44.5445400  26.7913950  68.0193990
  39.3414580  23.8196340  70.2740310  39.3819920  23.5210210  71.1825540
  40.1960080  24.2203950  70.1147830  41.2820390  22.3988440  68.2414800
  40.7516850  21.9079390  67.6138140  41.9508460  22.8272640  67.7072730
  50.1798450  26.8657900  68.0055990  50.5939470  27.0202980  68.8546410
  49.2449450  26.9913120  68.1681770  50.6520620  24.2054060  70.0095140
  51.2341390  23.4506380  69.9215620  50.8282390  24.7361500  69.2326620
  41.7692690  19.3650810  68.3212090  41.6749560  18.7471560  67.5962960
  41.1890080  20.0917100  68.0942000  44.5354130  17.9224050  65.3539480
  44.0871430  17.9448310  64.5085030  43.9019330  17.5243070  65.9509780
  44.9413680  26.8178380  65.9751920  45.3601790  27.6611110  65.8028160
  44.0222310  26.9550420  65.7458700  47.2777580  24.5494560  67.3589760
  47.3973790  23.9535700  68.0984600  48.1371580  24.5864250  66.9391060
  49.6165480  25.1031750  65.9352270  49.0900700  25.6274370  65.3317410
  49.9596820  25.7359140  66.5662000  44.0446350  21.0915910  68.6165580
  44.6346040  20.7831760  69.3043400  43.2266590  20.6195660  68.7725480
  48.8639780  20.7081720  68.8498600  48.1755300  20.0463260  68.7848590
  49.5845800  20.2619990  69.2947060  49.4940180  17.3033350  54.9088860
  49.7742470  16.4601250  55.2648280  48.7205910  17.5356460  55.4227610
  40.8134670  19.5925740  52.3679860  41.1160570  19.5993170  51.4599010
  41.5529260  19.2423600  52.8647520  44.0319600  18.5360360  53.3536060
  43.6841600  17.8584350  52.7738510  44.2332370  18.0749870  54.1679450
  50.3215680  19.8589300  53.9718920  50.7400560  19.6720280  53.1315580
  50.0151740  19.0068350  54.2821850  53.2105030  23.9184960  67.3034240
  52.9791120  23.6897710  66.4032190  53.4709580  24.8384510  67.2579130
  37.9617170  22.3609670  68.1962190  37.0673220  22.3276430  68.5355900
  38.5014720  22.5596460  68.9613440  51.6493100  19.1441390  70.0813940
  52.5263280  19.1524790  70.4647940  51.6613940  18.4072230  69.4706290
  53.0956370  22.9970930  60.9701960  53.6193850  22.5033580  60.3392130
  53.6815790  23.1321290  61.7149530  53.2746090  23.0810800  64.4921510
  52.3248800  23.0474340  64.6066500  53.4559100  23.9910910  64.2571280
  39.1290530  21.3312480  53.6020140  39.8382230  20.9095700  53.1167420
  38.4130470  21.3987710  52.9703490  38.7764690  17.3851810  52.6422790
  39.4992820  17.9260750  52.9604010  39.0489210  17.1115230  51.7664330
  52.5856340  22.2544280  56.9094370  53.0815460  22.0215150  57.6943250
  52.3872410  21.4156120  56.4932010  38.4656880  16.6358000  62.5445410
  39.1133070  16.0855380  62.1040570  38.8858720  16.8901150  63.3661220
  54.0143500  20.8905230  59.4432050  53.9042780  20.7361270  60.3814320
  54.7751090  20.3626170  59.2007460  52.3609220  16.8299360  65.9015050
  52.9981440  17.4433500  66.2674240  52.5084110  16.8660020  64.9564280
  54.9033770  18.7213150  52.6838190  55.8283080  18.5894330  52.4756480
  54.8809560  18.8005970  53.6374640  54.9772260  19.4923810  55.3094900
  54.1823760  19.4268930  55.8387810  55.1815540  20.4274450  55.2980250
  38.2188880  16.7913670  65.2870730  37.8703700  17.2477490  66.0528910
  37.8876580  15.8970800  65.3693160  45.7313700  17.9825550  68.8090150
  45.6702590  18.5747380  69.5585560  46.6714080  17.8751510  68.6640410
  48.3688260  17.6395610  68.4482440  48.9828670  17.9574900  67.7863520
  48.9137820  17.1544200  69.0678300  38.8909520  16.3189870  68.5621500
  39.4392510  16.1377920  67.7987610  38.9564830  15.5283980  69.0977810
  49.1096300  16.2027750  64.7751730  48.2356140  16.5362860  64.5724660
  49.0007050  15.7300930  65.6003600  50.0168280  18.4098620  66.1593450
  49.6881640  17.5950380  65.7795180  50.9650580  18.3668430  66.0359140
  46.8571120  17.1197590  63.7144640  46.0742910  17.5943090  63.9941400
  46.5634050  16.2152420  63.6057820  51.4092190  17.8220690  61.7593730
  51.8500280  17.7665790  60.9115330  51.1399780  18.7378700  61.8303910
  53.2730760  17.4535930  59.7702550  53.2119160  16.5097150  59.6233570
  54.0522790  17.5616020  60.3156010  38.2011530  17.4245070  56.2358360
  38.9590890  17.5373950  55.6622390  37.7388700  18.2614270  56.1901790
  44.7425340  19.5384340  59.2260670  43.9299850  19.1641230  58.8856550
  45.2466980  18.7829420  59.5281860  49.2450320  16.2026790  60.4643740
  49.8479690  16.7747000  60.9392260  48.5043310  16.7666230  60.2417640
  52.3884920  16.6048350  55.7384020  52.5835550  17.5031800  56.0051450
  51.6014790  16.3735430  56.2316970  40.5736680  17.9509120  54.7760330
  41.1029440  17.1638920  54.6468280  41.2065000  18.6300310  55.0095860
  42.7674520  17.6884260  57.8305720  42.1377260  16.9871570  57.9975850
  42.2279660  18.4488390  57.6138880  42.8930080  16.9668240  70.2658210
  42.6114350  17.4701840  69.5019030  43.2749780  16.1689990  69.9000340
  49.4945540  16.3821820  70.8438680  49.3810990  16.7016430  71.7390200
  50.3115280  16.7834330  70.5475960  36.9212520  24.0520660  43.6340540
  37.4928630  23.2842860  43.6344180  36.9214060  24.3509420  42.7247150
  38.1637390  19.4605020  45.4209470  37.9840230  18.5630770  45.7012230
  37.7617470  20.0076890  46.0956420  47.0035890  21.6620880  43.3221780
  47.3800710  20.7892760  43.2095450  46.9055400  21.9979580  42.4312220
  50.7860010  19.1571320  40.2550120  51.6069630  18.6667890  40.2975600
  50.8194090  19.7468980  41.0081960  38.7824060  21.9565520  44.0291810
  39.4634170  22.2203890  44.6479210  38.4672110  21.1166390  44.3629820
  42.9748630  23.0032880  43.1164400  43.4826850  23.5013850  43.7569420
  43.5061870  22.2268080  42.9403760  55.0759560  21.1738070  46.8193750
  54.3711730  21.5619780  46.3008860  55.3417480  21.8688360  47.4214680
  41.2584730  17.6431440  47.3827820  41.2603170  18.1603830  46.5773720
  40.4289040  17.1661620  47.3597750  51.0221490  21.0971700  43.0277660
  50.3177060  21.3856590  43.6080770  51.3833650  21.9071810  42.6677220
  40.9400060  19.3541400  45.3898270  41.2816870  20.1983450  45.0952140
  40.0015870  19.5025140  45.5063610  54.0908410  20.5426490  43.4186870
  53.1433320  20.5765470  43.5502300  54.4158400  21.3565440  43.8036230
  44.6227950  16.8423670  41.7142860  44.9302930  16.2870560  40.9978360
  43.6928650  16.9768130  41.5315850  53.5190550  25.8608020  45.4249170
  52.6909180  25.9301110  44.9499300  54.1141030  26.4462330  44.9565000
  50.4832560  22.6477340  46.3704040  50.0703740  23.4731050  46.6244030
  49.7508510  22.0622380  46.1780400  41.3293970  22.2080450  45.0121750
  41.8808560  22.3175790  44.2375000  41.8437480  22.5818050  45.7276980
  39.3169980  24.3282220  38.7329360  39.1967580  25.0544310  38.1210630
  39.0070870  23.5585130  38.2557270  54.0089130  21.6993920  50.2526160
  53.3933400  22.2073590  49.7241620  53.6885550  20.7992250  50.1952100
  41.7833640  17.6717290  42.1153030  41.3401790  18.4526830  41.7837550
  42.3418630  17.9947180  42.8223970  46.0703450  20.5385810  47.7188350
  45.6082820  20.7468830  48.5308290  45.6681560  19.7245160  47.4159020
  51.0707960  21.7594760  48.8485010  50.2201550  21.4600510  49.1694080
  50.9109750  22.0036770  47.9368830  43.8209540  18.2164620  43.9742630
  44.1181870  19.1227450  43.8934650  44.3695100  17.7283400  43.3602200
  39.1457610  20.1050110  48.6628330  38.7521000  20.9525320  48.8701110
  38.4576010  19.4676480  48.8536970  36.4474660  18.0278570  42.6958410
  36.1587710  18.5981430  43.4083390  37.1920420  17.5483020  43.0589640
  44.4343020  20.7037720  42.9731480  44.4379080  20.2627670  42.1236020
  45.3294140  21.0255050  43.0803300  40.2845400  20.5864210  41.9325690
  39.9445450  21.0639440  42.6892740  39.5222720  20.1329330  41.5726790
  48.4591540  19.4817200  43.9801930  48.4764280  19.9325850  44.8243780
  48.2107120  18.5822840  44.1935370  51.8862290  16.8949380  49.8188310
  52.2108060  16.1639040  50.3446290  51.9218800  16.5763020  48.9169300
  41.0969550  27.6789510  41.2726760  41.6148220  26.8757770  41.2183650
  40.6453570  27.6168650  42.1143590  53.3366870  26.5411460  48.4115720
  52.6115060  27.1340240  48.2145110  53.8642330  26.5335000  47.6129090
  37.1562660  18.1344120  48.8624560  36.4421180  18.3341040  49.4677170
  37.5757700  17.3583690  49.2339360  48.6501440  20.6266430  46.6126010
  49.0182260  19.8061640  46.9405580  47.7899640  20.6868320  47.0281660
  48.0162930  18.5859980  40.2767240  47.8930710  18.6046110  39.3276750
  48.9647490  18.6338920  40.3965640  52.8170290  19.4973980  47.6792370
  52.3143890  20.2379380  48.0186180  53.6326950  19.8857980  47.3629160
  41.7692690  19.3650810  49.5468600  41.6749560  18.7471560  48.8219470
  41.1890080  20.0917100  49.3198510  44.5354130  17.9224050  46.5795990
  44.0871430  17.9448310  45.7341540  43.9019330  17.5243070  47.1766290
  48.8639780  20.7081720  50.0755110  48.1755300  20.0463260  50.0105100
  49.5845800  20.2619990  50.5203570  37.3725240  25.0648010  40.9756940
  36.7174080  24.7959650  40.3316640  38.2103190  24.9552490  40.5258920
  53.2105030  23.9184960  48.5290750  52.9791120  23.6897710  47.6288700
  53.4709580  24.8384510  48.4835640  37.9617170  22.3609670  49.4218700
  37.0673220  22.3276430  49.7612410  38.5014720  22.5596460  50.1869950
  51.6493100  19.1441390  51.3070450  52.5263280  19.1524790  51.6904450
  51.6613940  18.4072230  50.6962800  53.2746090  23.0810800  45.7178020
  52.3248800  23.0474340  45.8323010  53.4559100  23.9910910  45.4827790
  38.4656880  16.6358000  43.7701920  39.1133070  16.0855380  43.3297080
  38.8858720  16.8901150  44.5917730  54.0143500  20.8905230  40.6688560
  53.9042780  20.7361270  41.6070830  54.7751090  20.3626170  40.4263970
  52.3609220  16.8299360  47.1271560  52.9981440  17.4433500  47.4930750
  52.5084110  16.8660020  46.1820790  54.9772260  19.4923810  36.5351410
  54.1823760  19.4268930  37.0644320  55.1815540  20.4274450  36.5236760
  38.2188880  16.7913670  46.5127240  37.8703700  17.2477490  47.2785420
  37.8876580  15.8970800  46.5949670  45.7313700  17.9825550  50.0346660
  45.6702590  18.5747380  50.7842070  46.6714080  17.8751510  49.8896920
  48.3688260  17.6395610  49.6738950  48.9828670  17.9574900  49.0120030
  48.9137820  17.1544200  50.2934810  38.8909520  16.3189870  49.7878010
  39.4392510  16.1377920  49.0244120  38.9564830  15.5283980  50.3234320
  49.1096300  16.2027750  46.0008240  48.2356140  16.5362860  45.7981170
  49.0007050  15.7300930  46.8260110  50.0168280  18.4098620  47.3849960
  49.6881640  17.5950380  47.0051690  50.9650580  18.3668430  47.2615650
  46.8571120  17.1197590  44.9401150  46.0742910  17.5943090  45.2197910
  46.5634050  16.2152420  44.8314330  51.4092190  17.8220690  42.9850240
  51.8500280  17.7665790  42.1371840  51.1399780  18.7378700  43.0560420
  53.2730760  17.4535930  40.9959060  53.2119160  16.5097150  40.8490080
  54.0522790  17.5616020  41.5412520  49.2450320  16.2026790  41.6900250
  49.8479690  16.7747000  42.1648770  48.5043310  16.7666230  41.4674150
  52.3884920  16.6048350  36.9640530  52.5835550  17.5031800  37.2307960
  51.6014790  16.3735430  37.4573480  42.8930080  16.9668240  51.4914720
  42.6114350  17.4701840  50.7275540  43.2749780  16.1689990  51.1256850
  49.4945540  16.3821820  52.0695190  49.3810990  16.7016430  52.9646710
  50.3115280  16.7834330  51.7732470  50.7860010  19.1571320  21.4806630
  51.6069630  18.6667890  21.5232110  50.8194090  19.7468980  22.2338470
  44.6227950  16.8423670  22.9399370  44.9302930  16.2870560  22.2234870
  43.6928650  16.9768130  22.7572360  46.9977790  21.1789500  16.6726650
  46.0581460  21.3403460  16.7579110  47.3161050  21.8975180  16.1262640
  52.7987840  16.9622420  15.5008530  52.4860500  17.0549250  16.4007600
  53.5600310  17.5403450  15.4505960  41.7833640  17.6717290  23.3409540
  41.3401790  18.4526830  23.0094060  42.3418630  17.9947180  24.0480480
  44.8992460  17.2927990  18.2215370  44.2746640  17.2887860  18.9468680
  44.8122580  16.4258950  17.8251340  47.2730070  18.4012450  18.7960240
  46.4594680  17.9025620  18.7205550  47.0792020  19.2410700  18.3796590
  49.9878460  22.7732100  17.0922400  50.8758080  23.0849330  16.9173740
  49.9583550  21.9004350  16.7002980  52.2592730  24.0843940  16.5602260
  52.1756450  24.5158160  15.7098700  52.9786920  24.5442290  16.9929080
  40.1568730  16.3753000  20.6274370  40.0283360  16.3670900  21.5759290
  39.3330750  16.7136090  20.2765380  52.0163470  19.5823370  18.6470080
  51.3876630  19.6869040  17.9328310  51.5215390  19.8020150  19.4363960
  48.0162930  18.5859980  21.5023750  47.8930710  18.6046110  20.5533260
  48.9647490  18.6338920  21.6222150  49.4940180  17.3033350  17.3601880
  49.7742470  16.4601250  17.7161300  48.7205910  17.5356460  17.8740630
  40.8134670  19.5925740  14.8192880  41.1160570  19.5993170  13.9112030
  41.5529260  19.2423600  15.3160540  44.0319600  18.5360360  15.8049080
  43.6841600  17.8584350  15.2251530  44.2332370  18.0749870  16.6192470
  54.4164440  29.7962600  15.4671590  53.5857400  29.8639250  15.9378820
  54.5936270  30.6866720  15.1638450  53.8720900  26.5410080  17.9705790
  54.6339810  27.1106730  18.0765480  53.8875270  25.9737280  18.7414100
  53.9240070  26.8344450  15.1278310  54.1988910  27.7423330  14.9997530
  53.7350810  26.7706980  16.0640300  50.3215680  19.8589300  16.4231940
  50.7400560  19.6720280  15.5828600  50.0151740  19.0068350  16.7334870
  38.7764690  17.3851810  15.0935810  39.4992820  17.9260750  15.4117030
  39.0489210  17.1115230  14.2177350  52.5856340  22.2544280  19.3607390
  53.0815460  22.0215150  20.1456270  52.3872410  21.4156120  18.9445030
  54.9033770  18.7213150  15.1351210  55.8283080  18.5894330  14.9269500
  54.8809560  18.8005970  16.0887660  54.9772260  19.4923810  17.7607920
  54.1823760  19.4268930  18.2900830  55.1815540  20.4274450  17.7493270
  51.4092190  17.8220690  24.2106750  51.8500280  17.7665790  23.3628350
  51.1399780  18.7378700  24.2816930  53.2730760  17.4535930  22.2215570
  53.2119160  16.5097150  22.0746590  54.0522790  17.5616020  22.7669030
  44.7425340  19.5384340  21.6773690  43.9299850  19.1641230  21.3369570
  45.2466980  18.7829420  21.9794880  49.2450320  16.2026790  22.9156760
  49.8479690  16.7747000  23.3905280  48.5043310  16.7666230  22.6930660
  52.3884920  16.6048350  18.1897040  52.5835550  17.5031800  18.4564470
  51.6014790  16.3735430  18.6829990  40.5736680  17.9509120  17.2273350
  41.1029440  17.1638920  17.0981300  41.2065000  18.6300310  17.4608880
  42.7674520  17.6884260  20.2818740  42.1377260  16.9871570  20.4488870
  42.2279660  18.4488390  20.0651900  48.4003690  24.4014290   3.6586440
  48.3197740  23.4868900   3.3878150  47.9868110  24.8981360   2.9526150
  46.5321730  26.1793310   5.5395710  45.7563830  25.6993750   5.8294280
  47.1834660  25.4998960   5.3651870  40.5487560  26.4913120   6.4171470
  39.7172440  26.2361830   6.8167980  41.1568540  26.5623890   7.1529390
  50.5529160  30.5853500   4.3194840  50.0910690  29.8140740   4.6482010
  51.3654710  30.6119570   4.8247290  40.5288820  30.5253210   6.6129490
  40.8316860  29.6350950   6.4339710  41.2732410  31.0823430   6.3851740
  36.9212520  24.0520660   6.0853560  37.4928630  23.2842860   6.0857200
  36.9214060  24.3509420   5.1760170  46.7792470  32.8711510   3.9398830
  46.1603910  33.3269010   3.3693270  47.6344250  33.0262970   3.5388530
  45.9730720  28.8550500   5.5465870  45.9039000  27.9140440   5.3855000
  46.7350580  28.9451910   6.1188440  38.1637390  19.4605020   7.8722490
  37.9840230  18.5630770   8.1525250  37.7617470  20.0076890   8.5469440
  47.0035890  21.6620880   5.7734800  47.3800710  20.7892760   5.6608470
  46.9055400  21.9979580   4.8825240  50.7860010  19.1571320   2.7063140
  51.6069630  18.6667890   2.7488620  50.8194090  19.7468980   3.4594980
  38.7824060  21.9565520   6.4804830  39.4634170  22.2203890   7.0992230
  38.4672110  21.1166390   6.8142840  42.9748630  23.0032880   5.5677420
  43.4826850  23.5013850   6.2082440  43.5061870  22.2268080   5.3916780
  55.0759560  21.1738070   9.2706770  54.3711730  21.5619780   8.7521880
  55.3417480  21.8688360   9.8727700  41.2584730  17.6431440   9.8340840
  41.2603170  18.1603830   9.0286740  40.4289040  17.1661620   9.8110770
  42.5087580  27.2826620   8.0114340  42.1756960  27.9095540   8.6535410
  42.6854260  27.8088500   7.2316010  51.0221490  21.0971700   5.4790680
  50.3177060  21.3856590   6.0593790  51.3833650  21.9071810   5.1190240
  40.9400060  19.3541400   7.8411290  41.2816870  20.1983450   7.5465160
  40.0015870  19.5025140   7.9576630  41.7206680  29.2507420   9.8263520
  42.3380680  29.9258500   9.5447970  40.8599800  29.6595400   9.7351020
  52.6384270  30.7146830   7.7418160  51.9547790  31.3845940   7.7334830
  53.1778560  30.9127480   6.9763020  54.0908410  20.5426490   5.8699890
  53.1433320  20.5765470   6.0015320  54.4158400  21.3565440   6.2549250
  44.6227950  16.8423670   4.1655880  44.9302930  16.2870560   3.4491380
  43.6928650  16.9768130   3.9828870  50.1743010  32.5590960   6.4563340
  50.1870170  32.1553250   5.5885600  49.6218230  33.3338250   6.3524770
  49.5728450  27.4620800   7.7845950  49.9897240  27.2480910   6.9499410
  50.2968270  27.7193590   8.3554570  53.5190550  25.8608020   7.8762190
  52.6909180  25.9301110   7.4012320  54.1141030  26.4462330   7.4078020
  50.4832560  22.6477340   8.8217060  50.0703740  23.4731050   9.0757050
  49.7508510  22.0622380   8.6293420  42.6165350  25.4337240   3.6835730
  42.2122350  24.7214490   3.1881630  42.7028470  25.0890480   4.5723770
  43.0847050  29.1204800   5.8474940  42.7875340  28.5150270   5.1682720
  44.0346870  29.1582110   5.7364300  41.3293970  22.2080450   7.4634770
  41.8808560  22.3175790   6.6888020  41.8437480  22.5818050   8.1790000
  51.1732660  32.6936670   9.5098040  50.6963220  33.5008860   9.3170650
  50.4894450  32.0415000   9.6624250  42.1765480  28.8586490  12.4982740
  41.2794010  29.0826460  12.7456140  42.2018350  28.9821430  11.5494140
  41.0036700  25.7299810  11.0740110  40.8644470  26.6022610  11.4427510
  40.1218060  25.3872620  10.9288050  47.3266080  30.6475680   2.3805240
  47.7661990  31.3900010   1.9660630  47.2652970  30.8902250   3.3044200
  54.7531870  32.4548610  14.5789430  55.2291590  32.9331500  15.2578510
  55.3739030  32.3866100  13.8534930  36.9555350  27.4997360   6.9911020
  37.0335770  27.6346130   6.0466740  37.5697030  26.7913250   7.1839140
  38.2002980  29.1997550   3.4017200  37.7931060  29.3412140   2.5470800
  39.0915990  28.9157710   3.1988410  54.1565120  29.6461460  11.7389440
  54.2828180  29.4073340  10.8206620  54.1986500  28.8146000  12.2111520
  48.0181860  33.3489460  10.3084250  48.5326530  33.2597470  11.1106680
  47.1750940  33.6949160  10.6012160  49.2612320  32.7695070   2.3714740
  49.7169270  31.9884450   2.6853360  49.6004840  33.4801890   2.9155920
  54.0089130  21.6993920  12.7039180  53.3933400  22.2073590  12.1754640
  53.6885550  20.7992250  12.6465120  37.0114870  28.5411530   9.5305480
  37.1745910  28.0716890   8.7124850  37.4767320  28.0335090  10.1954320
  41.7833640  17.6717290   4.5666050  41.3401790  18.4526830   4.2350570
  42.3418630  17.9947180   5.2736990  46.0703450  20.5385810  10.1701370
  45.6082820  20.7468830  10.9821310  45.6681560  19.7245160   9.8672040
  51.0707960  21.7594760  11.2998030  50.2201550  21.4600510  11.6207100
  50.9109750  22.0036770  10.3881850  43.8209540  18.2164620   6.4255650
  44.1181870  19.1227450   6.3447670  44.3695100  17.7283400   5.8115220
  41.5747860  22.7950860   2.2947300  41.3488780  22.5788030   3.1993920
  40.7940390  23.2279320   1.9493270  47.4110490  21.4377770   2.9241230
  47.8040060  21.7549970   2.1109920  47.7727340  20.5589650   3.0385750
  39.1457610  20.1050110  11.1141350  38.7521000  20.9525320  11.3214130
  38.4576010  19.4676480  11.3049990  45.7202660  20.1885080  14.1838090
  45.0300980  19.9957280  14.8184180  46.4634960  20.4719720  14.7162390
  36.4474660  18.0278570   5.1471430  36.1587710  18.5981430   5.8596410
  37.1920420  17.5483020   5.5102660  47.9965630  24.0283520   7.0192010
  47.2646750  24.5370330   7.3682110  47.5989970  23.2113500   6.7180790
  44.4343020  20.7037720   5.4244500  44.4379080  20.2627670   4.5749040
  45.3294140  21.0255050   5.5316320  40.2845400  20.5864210   4.3838710
  39.9445450  21.0639440   5.1405760  39.5222720  20.1329330   4.0239810
  48.4591540  19.4817200   6.4314950  48.4764280  19.9325850   7.2756800
  48.2107120  18.5822840   6.6448390  51.8862290  16.8949380  12.2701330
  52.2108060  16.1639040  12.7959310  51.9218800  16.5763020  11.3682320
  38.5853850  27.9162960  11.6901290  38.2008640  27.2756630  12.2884250
  38.8966040  28.6199080  12.2596020  44.7350990  24.7639500   7.1709910
  45.1021120  24.2898070   7.9171250  44.5456050  25.6381070   7.5118250
  37.5991480  19.5083190   3.3003380  37.3138400  19.1438860   4.1382000
  37.5370340  18.7763650   2.6866520  42.5250360  23.8048140   9.4894120
  42.2207430  24.6840120   9.7144480  43.4796820  23.8647930   9.5251560
  51.8120130  27.0074490   5.8787360  52.5319250  27.5029780   5.4883470
  51.6101950  26.3292380   5.2341230  41.0969550  27.6789510   3.7239780
  41.6148220  26.8757770   3.6696670  40.6453570  27.6168650   4.5656610
  38.5814090  24.6450880  10.6365480  38.2229030  25.3104730  11.2238820
  38.2868650  23.8134430  11.0078100  47.1255660  29.9004120  11.5160160
  47.1400200  28.9685080  11.2979070  46.4180760  29.9863880  12.1549930
  53.3366870  26.5411460  10.8628740  52.6115060  27.1340240  10.6658130
  53.8642330  26.5335000  10.0642110  48.8666460  28.2671630   4.3612590
  49.2190280  27.6699760   3.7013960  47.9828790  27.9415860   4.5320840
  44.9529740  29.0269320   1.7683000  45.6400870  29.5738530   2.1490590
  44.1662160  29.5710050   1.8032610  46.5589560  31.5421690   8.6100660
  47.2031780  31.7481070   9.2874080  46.9219000  30.7810090   8.1571510
  47.8321640  29.5454040   7.3278110  48.4743870  28.8447200   7.4410280
  48.3570990  30.3252480   7.1475000  49.6059260  30.3448940  10.5314170
  49.9415500  30.9315630  11.2092090  48.6859600  30.2141650  10.7611960
  37.1562660  18.1344120  11.3137580  36.4421180  18.3341040  11.9190190
  37.5757700  17.3583690  11.6852380  37.4435250  32.1224380  12.3004110
  37.5526370  31.1819120  12.1599500  36.7915810  32.3879130  11.6517840
  48.6501440  20.6266430   9.0639030  49.0182260  19.8061640   9.3918600
  47.7899640  20.6868320   9.4794680  45.6103430  23.2806020   9.2877000
  46.1088680  23.7551840   9.9528850  45.7526380  22.3569540   9.4947030
  48.0162930  18.5859980   2.7280260  47.8930710  18.6046110   1.7789770
  48.9647490  18.6338920   2.8478660  52.8170290  19.4973980  10.1305390
  52.3143890  20.2379380  10.4699200  53.6326950  19.8857980   9.8142180
  51.1092300  24.7407160   3.5766750  50.1682440  24.7557390   3.7514440
  51.4236370  23.9543120   4.0227050  53.1117880  31.9116010   5.2521010
  53.2365300  32.7347180   5.7244820  53.9783440  31.7006740   4.9045160
  40.5835410  34.0047220   4.9238140  41.3197890  33.4562680   5.1946710
  40.9676330  34.8703230   4.7844130  39.5893690  33.1893290  14.1123720
  40.3906420  33.5105340  14.5259120  39.0745510  32.8288870  14.8343630
  49.8558690  33.0253450  12.6708540  50.8080440  32.9411470  12.6208780
  49.7086910  33.6895160  13.3442330  51.5052790  28.8143070  13.1470310
  52.2462260  29.1518830  12.6437770  50.7425470  28.9835130  12.5940080
  41.2820390  22.3988440  11.9184330  40.7516850  21.9079390  11.2907670
  41.9508460  22.8272640  11.3842260  50.1798450  26.8657900  11.6825520
  50.5939470  27.0202980  12.5315940  49.2449450  26.9913120  11.8451300
  41.7692690  19.3650810  11.9981620  41.6749560  18.7471560  11.2732490
  41.1890080  20.0917100  11.7711530  44.5354130  17.9224050   9.0309010
  44.0871430  17.9448310   8.1854560  43.9019330  17.5243070   9.6279310
  44.9413680  26.8178380   9.6521450  45.3601790  27.6611110   9.4797690
  44.0222310  26.9550420   9.4228230  49.6165480  25.1031750   9.6121800
  49.0900700  25.6274370   9.0086940  49.9596820  25.7359140  10.2431530
  42.7921100  33.1231390  10.7679180  42.2542190  33.8477450  10.4487880
  43.0455060  32.6461730   9.9776520  44.0446350  21.0915910  12.2935110
  44.6346040  20.7831760  12.9812930  43.2266590  20.6195660  12.4495010
  48.8639780  20.7081720  12.5268130  48.1755300  20.0463260  12.4618120
  49.5845800  20.2619990  12.9716590  45.6483310  34.3582600  11.0265830
  45.5742010  35.2617740  11.3338200  44.7462150  34.0394500  10.9987900
  37.0510600  31.6857190   4.3299450  37.3813610  30.8178250   4.0978090
  37.4801600  31.8915710   5.1604410  37.5400810  32.5527780   7.0681080
  37.1031800  32.7328580   7.9005230  38.1078490  33.3102400   6.9262800
  53.1762990  32.0544780  11.3558390  52.5764980  32.1137340  10.6122310
  53.3056890  31.1149760  11.4855240  37.3725240  25.0648010   3.4269960
  36.7174080  24.7959650   2.7829660  38.2103190  24.9552490   2.9771940
  54.8780870  27.3960180   4.0404230  55.2489700  26.6127500   3.6340200
  55.5182800  28.0849280   3.8621530  51.8614630  28.7796760   9.4534550
  51.0474470  29.2093920   9.7160340  52.2688830  29.3915170   8.8403600
  38.4101170  25.4500580   7.9673300  38.7774210  25.3627980   8.8469320
  37.8411990  24.6867130   7.8680160  53.2105030  23.9184960  10.9803770
  52.9791120  23.6897710  10.0801720  53.4709580  24.8384510  10.9348660
  37.9617170  22.3609670  11.8731720  37.0673220  22.3276430  12.2125430
  38.5014720  22.5596460  12.6382970  51.6493100  19.1441390  13.7583470
  52.5263280  19.1524790  14.1417470  51.6613940  18.4072230  13.1475820
  53.0956370  22.9970930   4.6471490  53.6193850  22.5033580   4.0161660
  53.6815790  23.1321290   5.3919060  53.2746090  23.0810800   8.1691040
  52.3248800  23.0474340   8.2836030  53.4559100  23.9910910   7.9340810
  38.4656880  16.6358000   6.2214940  39.1133070  16.0855380   5.7810100
  38.8858720  16.8901150   7.0430750  54.0143500  20.8905230   3.1201580
  53.9042780  20.7361270   4.0583850  54.7751090  20.3626170   2.8776990
  52.3609220  16.8299360   9.5784580  52.9981440  17.4433500   9.9443770
  52.5084110  16.8660020   8.6333810  51.9190680  33.5315360   2.9802820
  52.5149750  33.2099930   2.3037240  52.1768830  33.0587180   3.7716090
  38.2188880  16.7913670   8.9640260  37.8703700  17.2477490   9.7298440
  37.8876580  15.8970800   9.0462690  39.8253250  29.9633270  13.1293450
  39.7822880  29.5926180  14.0107910  39.9564260  30.9010840  13.2695270
  43.5259280  31.5192860   8.7303170  43.2850640  31.7867420   7.8433690
  44.4661920  31.6898590   8.7854030  45.7313700  17.9825550  12.4859680
  45.6702590  18.5747380  13.2355090  46.6714080  17.8751510  12.3409940
  48.3688260  17.6395610  12.1251970  48.9828670  17.9574900  11.4633050
  48.9137820  17.1544200  12.7447830  54.7863440  33.5387240   9.5313810
  54.2921720  33.9356110   8.8140940  54.1776730  32.9136450   9.9251090
  38.8909520  16.3189870  12.2391030  39.4392510  16.1377920  11.4757140
  38.9564830  15.5283980  12.7747340  39.6641280  32.9095520  10.2491230
  39.0701600  32.7780220  10.9881270  39.6565120  32.0733660   9.7833330
  49.1096300  16.2027750   8.4521260  48.2356140  16.5362860   8.2494190
  49.0007050  15.7300930   9.2773130  50.0168280  18.4098620   9.8362980
  49.6881640  17.5950380   9.4564710  50.9650580  18.3668430   9.7128670
  52.4702890  34.1810660   6.8100550  52.0105860  34.9326470   6.4358570
  51.8415350  33.4617130   6.7515350  39.2953510  30.2753900   9.1999270
  38.5687570  29.6559190   9.1325220  39.3562660  30.6694510   8.3297350
  42.8998610  32.4898900   5.9848680  43.4163630  31.8786260   5.4596940
  43.5495990  32.9927680   6.4759690  45.6394110  33.3807390   6.8117660
  45.9271920  33.1261690   5.9350670  46.1517330  32.8284750   7.4023230
  46.8571120  17.1197590   7.3914170  46.0742910  17.5943090   7.6710930
  46.5634050  16.2152420   7.2827350  51.4092190  17.8220690   5.4363260
  51.8500280  17.7665790   4.5884860  51.1399780  18.7378700   5.5073440
  53.2730760  17.4535930   3.4472080  53.2119160  16.5097150   3.3003100
  54.0522790  17.5616020   3.9925540  37.5783510  33.5928290   2.4096030
  37.4105550  32.9598970   3.1077920  36.7118020  33.7987690   2.0590220
  44.7425340  19.5384340   2.9030200  43.9299850  19.1641230   2.5626080
  45.2466980  18.7829420   3.2051390  49.2450320  16.2026790   4.1413270
  49.8479690  16.7747000   4.6161790  48.5043310  16.7666230   3.9187170
  42.8930080  16.9668240  13.9427740  42.6114350  17.4701840  13.1788560
  43.2749780  16.1689990  13.5769870  49.4945540  16.3821820  14.5208210
  49.3810990  16.7016430  15.4159730  50.3115280  16.7834330  14.2245490
  52.2744030  33.5293350  14.0026900  53.0669350  33.0342580  13.7952860
  52.5677180  34.2083490  14.6102510  48.4003690   5.6270800  78.7560400
  48.3197740   4.7125410  78.4852110  47.9868110   6.1237870  78.0500110
  46.5321730   7.4049820  80.6369670  45.7563830   6.9250260  80.9268240
  47.1834660   6.7255470  80.4625830  40.5487560   7.7169630  81.5145430
  39.7172440   7.4618340  81.9141940  41.1568540   7.7880400  82.2503350
  50.5529160  11.8110010  79.4168800  50.0910690  11.0397250  79.7455970
  51.3654710  11.8376080  79.9221250  40.5288820  11.7509720  81.7103450
  40.8316860  10.8607460  81.5313670  41.2732410  12.3079940  81.4825700
  38.9579510   2.6771520  75.2987820  38.0696210   3.0187490  75.1967700
  39.2420700   2.4771840  74.4068650  36.9212520   5.2777170  81.1827520
  37.4928630   4.5099370  81.1831160  36.9214060   5.5765930  80.2734130
  46.7792470  14.0968020  79.0372790  46.1603910  14.5525520  78.4667230
  47.6344250  14.2519480  78.6362490  45.9730720  10.0807010  80.6439830
  45.9039000   9.1396950  80.4828960  46.7350580  10.1708420  81.2162400
  47.0035890   2.8877390  80.8708760  47.3800710   2.0149270  80.7582430
  46.9055400   3.2236090  79.9799200  38.7824060   3.1822030  81.5778790
  39.4634170   3.4460400  82.1966190  38.4672110   2.3422900  81.9116800
  42.9748630   4.2289390  80.6651380  43.4826850   4.7270360  81.3056400
  43.5061870   3.4524590  80.4890740  47.6455820   8.9807260  76.4304700
  47.0273090   9.4456710  75.8667420  48.1579070   9.6734740  76.8474210
  42.5087580   8.5083130  83.1088300  42.1756960   9.1352050  83.7509370
  42.6854260   9.0345010  82.3289970  51.0221490   2.3228210  80.5764640
  50.3177060   2.6113100  81.1567750  51.3833650   3.1328320  80.2164200
  37.0139020   9.6663790  73.8044330  36.6367000  10.1550890  73.0729230
  37.2712090  10.3389070  74.4350860  52.6384270  11.9403340  82.8392120
  51.9547790  12.6102450  82.8308790  53.1778560  12.1383990  82.0736980
  54.0908410   1.7683000  80.9673850  53.1433320   1.8021980  81.0989280
  54.4158400   2.5821950  81.3523210  50.1743010  13.7847470  81.5537300
  50.1870170  13.3809760  80.6859560  49.6218230  14.5594760  81.4498730
  51.4688430  10.5063690  76.6427470  51.3584760   9.5638020  76.7676890
  51.4656680  10.8679330  77.5290230  49.5728450   8.6877310  82.8819910
  49.9897240   8.4737420  82.0473370  50.2968270   8.9450100  83.4528530
  47.0108710   6.1329010  75.9989960  46.0837990   6.0666390  76.2278430
  47.1633530   7.0709140  75.8845200  46.9977790   2.4046010  72.9957120
  46.0581460   2.5659970  73.0809580  47.3161050   3.1231690  72.4493110
  53.5190550   7.0864530  82.9736150  52.6909180   7.1557620  82.4986280
  54.1141030   7.6718840  82.5051980  51.0406000   7.6949310  76.5025210
  50.4218420   7.3568860  75.8551510  51.0230450   7.0509070  77.2104400
  42.6165350   6.6593750  78.7809690  42.2122350   5.9471000  78.2855590
  42.7028470   6.3146990  79.6697730  43.0847050  10.3461310  80.9448900
  42.7875340   9.7406780  80.2656680  44.0346870  10.3838620  80.8338260
  41.3293970   3.4336960  82.5608730  41.8808560   3.5432300  81.7861980
  41.8437480   3.8074560  83.2763960  49.2170700   6.9336120  73.5097960
  49.6563980   6.0958550  73.3635780  49.9299120   7.5665520  73.5962100
  47.3266080  11.8732190  77.4779200  47.7661990  12.6156520  77.0634590
  47.2652970  12.1158760  78.4018160  39.3169980   5.5538730  76.2816340
  39.1967580   6.2800820  75.6697610  39.0070870   4.7841640  75.8044250
  36.9555350   8.7253870  82.0884980  37.0335770   8.8602640  81.1440700
  37.5697030   8.0169760  82.2813100  38.2002980  10.4254060  78.4991160
  37.7931060  10.5668650  77.6444760  39.0915990  10.1414220  78.2962370
  49.9936260  14.8601310  74.8342210  49.8337400  14.5704250  75.7324040
  49.8282970  14.0841440  74.2987440  42.4724640  14.6399840  76.6113830
  42.2967120  13.7235380  76.3981630  41.6180380  14.9987130  76.8511630
  49.6962390  12.3688870  73.3940210  49.0027550  12.3666160  72.7342490
  50.4385250  11.9448190  72.9634380  49.2612320  13.9951580  77.4688700
  49.7169270  13.2140960  77.7827320  49.6004840  14.7058400  78.0129880
  41.5747860   4.0207370  77.3921260  41.3488780   3.8044540  78.2967880
  40.7940390   4.4535830  77.0467230  48.8045620   4.0270740  75.9911910
  48.2054510   4.7506540  75.8075530  49.3525230   3.9647520  75.2088360
  47.4110490   2.6634280  78.0215190  47.8040060   2.9806480  77.2083880
  47.7727340   1.7846160  78.1359710  36.6344890   3.1955200  71.4548110
  36.5519560   4.1385960  71.5963100  36.2827950   3.0530110  70.5760460
  47.9965630   5.2540030  82.1165970  47.2646750   5.7626840  82.4656070
  47.5989970   4.4370010  81.8154750  44.4343020   1.9294230  80.5218460
  44.4379080   1.4884180  79.6723000  45.3294140   2.2511560  80.6290280
  44.4963170   2.9306310  73.5125220  44.6175990   2.8892790  74.4611040
  44.1111680   3.7930460  73.3571950  43.5084670   5.2407450  72.9108520
  42.9401570   4.7925700  72.2844430  44.2173670   5.6000230  72.3773670
  44.7350990   5.9896010  82.2683870  45.1021120   5.5154580  83.0145210
  44.5456050   6.8637580  82.6092210  41.0532150   9.2365640  75.1834930
  40.2794410   8.6963260  75.0233650  41.7826780   8.7172250  74.8452690
  51.8120130   8.2331000  80.9761320  52.5319250   8.7286290  80.5857430
  51.6101950   7.5548890  80.3315190  49.9878460   3.9988610  73.4152870
  50.8758080   4.3105840  73.2404210  49.9583550   3.1260860  73.0233450
  41.0969550   8.9046020  78.8213740  41.6148220   8.1014280  78.7670630
  40.6453570   8.8425160  79.6630570  45.9839050  10.1712300  74.0941040
  46.3254750  10.9154530  73.5984360  45.1551760  10.4843420  74.4565870
  52.2592730   5.3100450  72.8832730  52.1756450   5.7414670  72.0329170
  52.9786920   5.7698800  73.3159550  53.2879980  12.1642710  75.6114860
  52.6456140  11.5098330  75.8858580  52.9010640  12.5697800  74.8355530
  48.8666460   9.4928140  79.4586550  49.2190280   8.8956270  78.7987920
  47.9828790   9.1672370  79.6294800  44.9529740  10.2525830  76.8656960
  45.6400870  10.7995040  77.2464550  44.1662160  10.7966560  76.9006570
  37.0922140   5.8698650  72.3574040  37.9616990   6.1523450  72.6409960
  36.6012460   6.6834520  72.2422850  44.2556950   7.2571860  76.4782320
  44.7119730   8.0677110  76.7042510  43.9045160   6.9395000  77.3100810
  47.8321640  10.7710550  82.4252070  48.4743870  10.0703710  82.5384240
  48.3570990  11.5508990  82.2448960  51.6777360  11.0559170  72.1491210
  51.4514940  10.3389610  72.7415850  51.2873560  10.8071610  71.3112960
  37.4593390  15.0826030  72.9235670  37.8191030  15.6815370  72.2692940
  37.3185730  15.6285920  73.6970700  51.2593610   8.9731110  73.8105370
  50.9715310   9.4343800  74.5983250  52.0545780   8.5128880  74.0789590
  43.4762010  12.4657230  73.7409340  43.4672110  13.1986920  73.1253850
  42.5560370  12.2188810  73.8336300  39.0768650   7.6872120  74.4856100
  38.4696600   8.4271020  74.4951400  39.5518000   7.7771480  73.6594300
  46.4621610  12.5285470  72.4034530  46.5633590  12.3249460  71.4736510
  45.5623350  12.2743750  72.6082310  43.9847500   3.0865830  76.3858430
  43.2763650   3.5552170  76.8272040  44.2691980   2.4287840  77.0203620
  45.1039720  15.0471790  77.0982200  45.3581220  15.0093180  76.1761570
  44.1552200  14.9205120  77.0910450  51.1092300   5.9663670  78.6740710
  50.1682440   5.9813900  78.8488400  51.4236370   5.1799630  79.1201010
  41.0873940   7.6483270  72.2344670  41.8537210   7.5364630  72.7970100
  41.1648630   6.9521240  71.5821440  39.7820700   5.0808340  72.9177560
  39.8624290   4.1335850  73.0294960  40.6740450   5.4115220  73.0238220
  53.1117880  13.1372520  80.3494970  53.2365300  13.9603690  80.8218780
  53.9783440  12.9263250  80.0019120  40.5835410  15.2303730  80.0212100
  41.3197890  14.6819190  80.2920670  40.9676330  16.0959740  79.8818090
  37.4680890  11.2977300  75.8953610  36.5420670  11.5398440  75.8859020
  37.9337320  12.1251560  75.7738360  43.6937720  14.4034040  71.8437670
  44.4866330  14.6922870  71.3919460  43.1742070  13.9726210  71.1650150
  52.7467890  13.6304170  73.2674410  52.4609400  13.2169310  72.4528590
  52.5487440  14.5591880  73.1474930  44.2115120   9.6237450  71.7080020
  44.1065760   9.0089800  72.4341400  44.0439340   9.1003340  70.9243030
  47.4517850   8.6857480  72.3122010  46.9027950   9.1326780  72.9564750
  48.0737110   8.1806730  72.8359680  43.1192970   7.6448400  74.2087310
  43.5409390   7.4788270  75.0518700  43.2443810   6.8348630  73.7142450
  45.6320610   6.6686010  71.4564410  46.1526270   5.9535030  71.0905560
  46.2789010   7.3071880  71.7564920  42.0151870   3.7181630  71.1545470
  41.8140930   2.8548990  71.5158810  41.8443920   3.6314990  70.2167070
  46.1968640  14.7497620  73.7466150  47.0919430  15.0882590  73.7684910
  46.2286270  14.0277030  73.1190430  39.8364800  10.1224670  71.9753150
  40.2739670  10.6654340  72.6310730  40.3212530   9.2971620  71.9849490
  37.0510600  12.9113700  79.4273410  37.3813610  12.0434760  79.1952050
  37.4801600  13.1172220  80.2578370  41.6472520  11.2422710  77.0875380
  41.3468060  11.1187680  77.9879290  41.5410010  10.3831300  76.6791110
  37.5400810  13.7784290  82.1655040  37.1031800  13.9585090  82.9979190
  38.1078490  14.5358910  82.0236760  54.4164440  11.0219110  71.7902060
  53.5857400  11.0895760  72.2609290  54.5936270  11.9123230  71.4868920
  53.8720900   7.7666590  74.2936260  54.6339810   8.3363240  74.3995950
  53.8875270   7.1993790  75.0644570  37.3725240   6.2904520  78.5243920
  36.7174080   6.0216160  77.8803620  38.2103190   6.1809000  78.0745900
  54.8780870   8.6216690  79.1378190  55.2489700   7.8384010  78.7314160
  55.5182800   9.3105790  78.9595490  53.9240070   8.0600960  71.4508780
  54.1988910   8.9679840  71.3228000  53.7350810   7.9963490  72.3870770
  53.8205410   5.9969950  76.4438210  53.4449010   5.2297880  76.0119500
  53.0908530   6.3792650  76.9313140  36.5863320   3.5003450  74.4669250
  35.6827400   3.7633650  74.2920910  37.0703940   3.7714620  73.6869210
  53.0956370   4.2227440  79.7445450  53.6193850   3.7290090  79.1135620
  53.6815790   4.3577800  80.4893020  53.2746090   4.3067310  83.2665000
  52.3248800   4.2730850  83.3809990  53.4559100   5.2167420  83.0314770
  39.1290530   2.5568990  72.3763630  39.8382230   2.1352210  71.8910910
  38.4130470   2.6244220  71.7446980  52.5856340   3.4800790  75.6837860
  53.0815460   3.2471660  76.4686740  52.3872410   2.6412630  75.2675500
  54.0143500   2.1161740  78.2175540  53.9042780   1.9617780  79.1557810
  54.7751090   1.5882680  77.9750950  51.9190680  14.7571870  78.0776780
  52.5149750  14.4356440  77.4011200  52.1768830  14.2843690  78.8690050
  52.4702890  15.4067170  81.9074510  52.0105860  16.1582980  81.5332530
  51.8415350  14.6873640  81.8489310  42.8998610  13.7155410  81.0822640
  43.4163630  13.1042770  80.5570900  43.5495990  14.2184190  81.5733650
  45.6394110  14.6063900  81.9091620  45.9271920  14.3518200  81.0324630
  46.1517330  14.0541260  82.4997190  37.5783510  14.8184800  77.5069990
  37.4105550  14.1855480  78.2051880  36.7118020  15.0244200  77.1564180
  39.1846210  13.5118030  74.9520130  38.6593830  13.8926060  74.2482090
  39.1090790  14.1368800  75.6729840  53.9411530  15.0705570  76.2734070
  54.1163720  14.3843310  75.6294990  53.2433100  15.5952620  75.8810740
  41.7839180  15.4600410  73.8269380  42.5158000  15.1759690  73.2793270
  42.0432850  15.2213690  74.7168760  40.9453970  11.5765140  73.8315710
  40.3162850  12.0450240  74.3801540  41.0601800  10.7314360  74.2661900
  48.4003690   5.6270800  59.9816910  48.3197740   4.7125410  59.7108620
  47.9868110   6.1237870  59.2756620  46.5321730   7.4049820  61.8626180
  45.7563830   6.9250260  62.1524750  47.1834660   6.7255470  61.6882340
  40.5487560   7.7169630  62.7401940  39.7172440   7.4618340  63.1398450
  41.1568540   7.7880400  63.4759860  50.5529160  11.8110010  60.6425310
  50.0910690  11.0397250  60.9712480  51.3654710  11.8376080  61.1477760
  40.5288820  11.7509720  62.9359960  40.8316860  10.8607460  62.7570180
  41.2732410  12.3079940  62.7082210  38.9579510   2.6771520  56.5244330
  38.0696210   3.0187490  56.4224210  39.2420700   2.4771840  55.6325160
  36.9212520   5.2777170  62.4084030  37.4928630   4.5099370  62.4087670
  36.9214060   5.5765930  61.4990640  46.7792470  14.0968020  60.2629300
  46.1603910  14.5525520  59.6923740  47.6344250  14.2519480  59.8619000
  45.9730720  10.0807010  61.8696340  45.9039000   9.1396950  61.7085470
  46.7350580  10.1708420  62.4418910  47.0035890   2.8877390  62.0965270
  47.3800710   2.0149270  61.9838940  46.9055400   3.2236090  61.2055710
  38.7824060   3.1822030  62.8035300  39.4634170   3.4460400  63.4222700
  38.4672110   2.3422900  63.1373310  42.9748630   4.2289390  61.8907890
  43.4826850   4.7270360  62.5312910  43.5061870   3.4524590  61.7147250
  55.0759560   2.3994580  65.5937240  54.3711730   2.7876290  65.0752350
  55.3417480   3.0944870  66.1958170  47.6455820   8.9807260  57.6561210
  47.0273090   9.4456710  57.0923930  48.1579070   9.6734740  58.0730720
  42.5087580   8.5083130  64.3344810  42.1756960   9.1352050  64.9765880
  42.6854260   9.0345010  63.5546480  51.0221490   2.3228210  61.8021150
  50.3177060   2.6113100  62.3824260  51.3833650   3.1328320  61.4420710
  41.7206680  10.4763930  66.1493990  42.3380680  11.1515010  65.8678440
  40.8599800  10.8851910  66.0581490  37.0139020   9.6663790  55.0300840
  36.6367000  10.1550890  54.2985740  37.2712090  10.3389070  55.6607370
  52.6384270  11.9403340  64.0648630  51.9547790  12.6102450  64.0565300
  53.1778560  12.1383990  63.2993490  54.0908410   1.7683000  62.1930360
  53.1433320   1.8021980  62.3245790  54.4158400   2.5821950  62.5779720
  50.1743010  13.7847470  62.7793810  50.1870170  13.3809760  61.9116070
  49.6218230  14.5594760  62.6755240  51.4688430  10.5063690  57.8683980
  51.3584760   9.5638020  57.9933400  51.4656680  10.8679330  58.7546740
  49.5728450   8.6877310  64.1076420  49.9897240   8.4737420  63.2729880
  50.2968270   8.9450100  64.6785040  47.0108710   6.1329010  57.2246470
  46.0837990   6.0666390  57.4534940  47.1633530   7.0709140  57.1101710
  46.9977790   2.4046010  54.2213630  46.0581460   2.5659970  54.3066090
  47.3161050   3.1231690  53.6749620  53.5190550   7.0864530  64.1992660
  52.6909180   7.1557620  63.7242790  54.1141030   7.6718840  63.7308490
  51.0406000   7.6949310  57.7281720  50.4218420   7.3568860  57.0808020
  51.0230450   7.0509070  58.4360910  50.4832560   3.8733850  65.1447530
  50.0703740   4.6987560  65.3987520  49.7508510   3.2878890  64.9523890
  42.6165350   6.6593750  60.0066200  42.2122350   5.9471000  59.5112100
  42.7028470   6.3146990  60.8954240  43.0847050  10.3461310  62.1705410
  42.7875340   9.7406780  61.4913190  44.0346870  10.3838620  62.0594770
  41.3293970   3.4336960  63.7865240  41.8808560   3.5432300  63.0118490
  41.8437480   3.8074560  64.5020470  51.1732660  13.9193180  65.8328510
  50.6963220  14.7265370  65.6401120  50.4894450  13.2671510  65.9854720
  42.1765480  10.0843000  68.8213210  41.2794010  10.3082970  69.0686610
  42.2018350  10.2077940  67.8724610  49.2170700   6.9336120  54.7354470
  49.6563980   6.0958550  54.5892290  49.9299120   7.5665520  54.8218610
  41.0036700   6.9556320  67.3970580  40.8644470   7.8279120  67.7657980
  40.1218060   6.6129130  67.2518520  47.3266080  11.8732190  58.7035710
  47.7661990  12.6156520  58.2891100  47.2652970  12.1158760  59.6274670
  42.8017050  12.8978020  69.6055730  42.7732480  13.3020970  68.7384160
  42.6382020  11.9688380  69.4427330  39.3169980   5.5538730  57.5072850
  39.1967580   6.2800820  56.8954120  39.0070870   4.7841640  57.0300760
  54.7531870  13.6805120  70.9019900  55.2291590  14.1588010  71.5808980
  55.3739030  13.6122610  70.1765400  36.9555350   8.7253870  63.3141490
  37.0335770   8.8602640  62.3697210  37.5697030   8.0169760  63.5069610
  38.2002980  10.4254060  59.7247670  37.7931060  10.5668650  58.8701270
  39.0915990  10.1414220  59.5218880  54.1565120  10.8717970  68.0619910
  54.2828180  10.6329850  67.1437090  54.1986500  10.0402510  68.5341990
  48.0181860  14.5745970  66.6314720  48.5326530  14.4853980  67.4337150
  47.1750940  14.9205670  66.9242630  49.9936260  14.8601310  56.0598720
  49.8337400  14.5704250  56.9580550  49.8282970  14.0841440  55.5243950
  42.4724640  14.6399840  57.8370340  42.2967120  13.7235380  57.6238140
  41.6180380  14.9987130  58.0768140  49.6962390  12.3688870  54.6196720
  49.0027550  12.3666160  53.9599000  50.4385250  11.9448190  54.1890890
  49.2612320  13.9951580  58.6945210  49.7169270  13.2140960  59.0083830
  49.6004840  14.7058400  59.2386390  54.0089130   2.9250430  69.0269650
  53.3933400   3.4330100  68.4985110  53.6885550   2.0248760  68.9695590
  37.0114870   9.7668040  65.8535950  37.1745910   9.2973400  65.0355320
  37.4767320   9.2591600  66.5184790  51.0707960   2.9851270  67.6228500
  50.2201550   2.6857020  67.9437570  50.9109750   3.2293280  66.7112320
  48.1657670   4.4853020  69.7227290  48.4911080   3.6516770  69.3829520
  48.9538000   5.0081540  69.8705620  41.5747860   4.0207370  58.6177770
  41.3488780   3.8044540  59.5224390  40.7940390   4.4535830  58.2723740
  48.8045620   4.0270740  57.2168420  48.2054510   4.7506540  57.0332040
  49.3525230   3.9647520  56.4344870  44.0147070   4.9192950  69.2838040
  43.9190670   3.9787680  69.1338440  44.8579050   5.1408020  68.8886110
  47.4110490   2.6634280  59.2471700  47.8040060   2.9806480  58.4340390
  47.7727340   1.7846160  59.3616220  36.6344890   3.1955200  52.6804620
  36.5519560   4.1385960  52.8219610  36.2827950   3.0530110  51.8016970
  47.9965630   5.2540030  63.3422480  47.2646750   5.7626840  63.6912580
  47.5989970   4.4370010  63.0411260  44.4343020   1.9294230  61.7474970
  44.4379080   1.4884180  60.8979510  45.3294140   2.2511560  61.8546790
  44.4963170   2.9306310  54.7381730  44.6175990   2.8892790  55.6867550
  44.1111680   3.7930460  54.5828460  43.5084670   5.2407450  54.1365030
  42.9401570   4.7925700  53.5100940  44.2173670   5.6000230  53.6030180
  38.5853850   9.1419470  68.0131760  38.2008640   8.5013140  68.6114720
  38.8966040   9.8455590  68.5826490  44.7350990   5.9896010  63.4940380
  45.1021120   5.5154580  64.2401720  44.5456050   6.8637580  63.8348720
  42.5250360   5.0304650  65.8124590  42.2207430   5.9096630  66.0374950
  43.4796820   5.0904440  65.8482030  41.0532150   9.2365640  56.4091440
  40.2794410   8.6963260  56.2490160  41.7826780   8.7172250  56.0709200
  51.8120130   8.2331000  62.2017830  52.5319250   8.7286290  61.8113940
  51.6101950   7.5548890  61.5571700  47.1938930   8.3040060  68.0886830
  47.1276240   7.3835730  67.8344420  46.5644070   8.4015500  68.8031470
  49.9878460   3.9988610  54.6409380  50.8758080   4.3105840  54.4660720
  49.9583550   3.1260860  54.2489960  41.0969550   8.9046020  60.0470250
  41.6148220   8.1014280  59.9927140  40.6453570   8.8425160  60.8887080
  45.9839050  10.1712300  55.3197550  46.3254750  10.9154530  54.8240870
  45.1551760  10.4843420  55.6822380  38.5814090   5.8707390  66.9595950
  38.2229030   6.5361240  67.5469290  38.2868650   5.0390940  67.3308570
  41.7827210   6.3291630  69.8435500  41.4827350   6.4748810  68.9463320
  42.5538450   5.7696920  69.7508890  47.1255660  11.1260630  67.8390630
  47.1400200  10.1941590  67.6209540  46.4180760  11.2120390  68.4780400
  52.2592730   5.3100450  54.1089240  52.1756450   5.7414670  53.2585680
  52.9786920   5.7698800  54.5416060  53.3366870   7.7667970  67.1859210
  52.6115060   8.3596750  66.9888600  53.8642330   7.7591510  66.3872580
  53.2879980  12.1642710  56.8371370  52.6456140  11.5098330  57.1115090
  52.9010640  12.5697800  56.0612040  48.8666460   9.4928140  60.6843060
  49.2190280   8.8956270  60.0244430  47.9828790   9.1672370  60.8551310
  44.9529740  10.2525830  58.0913470  45.6400870  10.7995040  58.4721060
  44.1662160  10.7966560  58.1263080  37.0922140   5.8698650  53.5830550
  37.9616990   6.1523450  53.8666470  36.6012460   6.6834520  53.4679360
  44.2556950   7.2571860  57.7038830  44.7119730   8.0677110  57.9299020
  43.9045160   6.9395000  58.5357320  46.5589560  12.7678200  64.9331130
  47.2031780  12.9737580  65.6104550  46.9219000  12.0066600  64.4801980
  47.8321640  10.7710550  63.6508580  48.4743870  10.0703710  63.7640750
  48.3570990  11.5508990  63.4705470  51.6777360  11.0559170  53.3747720
  51.4514940  10.3389610  53.9672360  51.2873560  10.8071610  52.5369470
  49.6059260  11.5705450  66.8544640  49.9415500  12.1572140  67.5322560
  48.6859600  11.4398160  67.0842430  37.4593390  15.0826030  54.1492180
  37.8191030  15.6815370  53.4949450  37.3185730  15.6285920  54.9227210
  51.2593610   8.9731110  55.0361880  50.9715310   9.4343800  55.8239760
  52.0545780   8.5128880  55.3046100  37.4435250  13.3480890  68.6234580
  37.5526370  12.4075630  68.4829970  36.7915810  13.6135640  67.9748310
  45.4347840  11.6196780  70.0232700  45.1144710  10.9006020  70.5678390
  44.7606200  12.2951850  70.0968760  43.4762010  12.4657230  54.9665850
  43.4672110  13.1986920  54.3510360  42.5560370  12.2188810  55.0592810
  39.0768650   7.6872120  55.7112610  38.4696600   8.4271020  55.7207910
  39.5518000   7.7771480  54.8850810  46.4621610  12.5285470  53.6291040
  46.5633590  12.3249460  52.6993020  45.5623350  12.2743750  53.8338820
  43.9847500   3.0865830  57.6114940  43.2763650   3.5552170  58.0528550
  44.2691980   2.4287840  58.2460130  45.6103430   4.5062530  65.6107470
  46.1088680   4.9808350  66.2759320  45.7526380   3.5826050  65.8177500
  45.1039720  15.0471790  58.3238710  45.3581220  15.0093180  57.4018080
  44.1552200  14.9205120  58.3166960  51.1092300   5.9663670  59.8997220
  50.1682440   5.9813900  60.0744910  51.4236370   5.1799630  60.3457520
  41.0873940   7.6483270  53.4601180  41.8537210   7.5364630  54.0226610
  41.1648630   6.9521240  52.8077950  39.7820700   5.0808340  54.1434070
  39.8624290   4.1335850  54.2551470  40.6740450   5.4115220  54.2494730
  53.1117880  13.1372520  61.5751480  53.2365300  13.9603690  62.0475290
  53.9783440  12.9263250  61.2275630  40.5835410  15.2303730  61.2468610
  41.3197890  14.6819190  61.5177180  40.9676330  16.0959740  61.1074600
  37.4680890  11.2977300  57.1210120  36.5420670  11.5398440  57.1115530
  37.9337320  12.1251560  56.9994870  39.5893690  14.4149800  70.4354190
  40.3906420  14.7361850  70.8489590  39.0745510  14.0545380  71.1574100
  43.6937720  14.4034040  53.0694180  44.4866330  14.6922870  52.6175970
  43.1742070  13.9726210  52.3906660  48.4258320  10.5229670  70.3829600
  47.8196480  10.5461270  69.6425350  48.1212430   9.7912710  70.9196850
  49.8558690  14.2509960  68.9939010  50.8080440  14.1667980  68.9439250
  49.7086910  14.9151670  69.6672800  52.7467890  13.6304170  54.4930920
  52.4609400  13.2169310  53.6785100  52.5487440  14.5591880  54.3731440
  37.3091500   6.9023260  69.3790240  37.8130520   6.3230540  69.9506470
  36.5698920   7.1863490  69.9166610  44.2115120   9.6237450  52.9336530
  44.1065760   9.0089800  53.6597910  44.0439340   9.1003340  52.1499540
  44.3629440   8.3094250  68.9125760  43.5975110   8.8779250  68.8280430
  44.5445400   8.0170460  68.0193990  47.4517850   8.6857480  53.5378520
  46.9027950   9.1326780  54.1821260  48.0737110   8.1806730  54.0616190
  51.5052790  10.0399580  69.4700780  52.2462260  10.3775340  68.9668240
  50.7425470  10.2091640  68.9170550  39.3414580   5.0452850  70.2740310
  39.3819920   4.7466720  71.1825540  40.1960080   5.4460460  70.1147830
  43.1192970   7.6448400  55.4343820  43.5409390   7.4788270  56.2775210
  43.2443810   6.8348630  54.9398960  41.2820390   3.6244950  68.2414800
  40.7516850   3.1335900  67.6138140  41.9508460   4.0529150  67.7072730
  45.6320610   6.6686010  52.6820920  46.1526270   5.9535030  52.3162070
  46.2789010   7.3071880  52.9821430  50.1798450   8.0914410  68.0055990
  50.5939470   8.2459490  68.8546410  49.2449450   8.2169630  68.1681770
  50.6520620   5.4310570  70.0095140  51.2341390   4.6762890  69.9215620
  50.8282390   5.9618010  69.2326620  44.9413680   8.0434890  65.9751920
  45.3601790   8.8867620  65.8028160  44.0222310   8.1806930  65.7458700
  47.2777580   5.7751070  67.3589760  47.3973790   5.1792210  68.0984600
  48.1371580   5.8120760  66.9391060  49.6165480   6.3288260  65.9352270
  49.0900700   6.8530880  65.3317410  49.9596820   6.9615650  66.5662000
  42.0151870   3.7181630  52.3801980  41.8140930   2.8548990  52.7415320
  41.8443920   3.6314990  51.4423580  42.7921100  14.3487900  67.0909650
  42.2542190  15.0733960  66.7718350  43.0455060  13.8718240  66.3006990
  44.0446350   2.3172420  68.6165580  44.6346040   2.0088270  69.3043400
  43.2266590   1.8452170  68.7725480  45.6483310  15.5839110  67.3496300
  45.5742010  16.4874250  67.6568670  44.7462150  15.2651010  67.3218370
  46.1968640  14.7497620  54.9722660  47.0919430  15.0882590  54.9941420
  46.2286270  14.0277030  54.3446940  39.8364800  10.1224670  53.2009660
  40.2739670  10.6654340  53.8567240  40.3212530   9.2971620  53.2106000
  37.0510600  12.9113700  60.6529920  37.3813610  12.0434760  60.4208560
  37.4801600  13.1172220  61.4834880  41.6472520  11.2422710  58.3131890
  41.3468060  11.1187680  59.2135800  41.5410010  10.3831300  57.9047620
  37.5400810  13.7784290  63.3911550  37.1031800  13.9585090  64.2235700
  38.1078490  14.5358910  63.2493270  53.1762990  13.2801290  67.6788860
  52.5764980  13.3393850  66.9352780  53.3056890  12.3406270  67.8085710
  54.4164440  11.0219110  53.0158570  53.5857400  11.0895760  53.4865800
  54.5936270  11.9123230  52.7125430  53.8720900   7.7666590  55.5192770
  54.6339810   8.3363240  55.6252460  53.8875270   7.1993790  56.2901080
  37.3725240   6.2904520  59.7500430  36.7174080   6.0216160  59.1060130
  38.2103190   6.1809000  59.3002410  54.8780870   8.6216690  60.3634700
  55.2489700   7.8384010  59.9570670  55.5182800   9.3105790  60.1852000
  51.8614630  10.0053270  65.7765020  51.0474470  10.4350430  66.0390810
  52.2688830  10.6171680  65.1634070  53.9240070   8.0600960  52.6765290
  54.1988910   8.9679840  52.5484510  53.7350810   7.9963490  53.6127280
  53.8205410   5.9969950  57.6694720  53.4449010   5.2297880  57.2376010
  53.0908530   6.3792650  58.1569650  38.4101170   6.6757090  64.2903770
  38.7774210   6.5884490  65.1699790  37.8411990   5.9123640  64.1910630
  53.2105030   5.1441470  67.3034240  52.9791120   4.9154220  66.4032190
  53.4709580   6.0641020  67.2579130  37.9617170   3.5866180  68.1962190
  37.0673220   3.5532940  68.5355900  38.5014720   3.7852970  68.9613440
  36.5863320   3.5003450  55.6925760  35.6827400   3.7633650  55.5177420
  37.0703940   3.7714620  54.9125720  53.0956370   4.2227440  60.9701960
  53.6193850   3.7290090  60.3392130  53.6815790   4.3577800  61.7149530
  53.2746090   4.3067310  64.4921510  52.3248800   4.2730850  64.6066500
  53.4559100   5.2167420  64.2571280  39.1290530   2.5568990  53.6020140
  39.8382230   2.1352210  53.1167420  38.4130470   2.6244220  52.9703490
  52.5856340   3.4800790  56.9094370  53.0815460   3.2471660  57.6943250
  52.3872410   2.6412630  56.4932010  54.0143500   2.1161740  59.4432050
  53.9042780   1.9617780  60.3814320  54.7751090   1.5882680  59.2007460
  51.9190680  14.7571870  59.3033290  52.5149750  14.4356440  58.6267710
  52.1768830  14.2843690  60.0946560  39.8253250  11.1889780  69.4523920
  39.7822880  10.8182690  70.3338380  39.9564260  12.1267350  69.5925740
  43.5259280  12.7449370  65.0533640  43.2850640  13.0123930  64.1664160
  44.4661920  12.9155100  65.1084500  54.7863440  14.7643750  65.8544280
  54.2921720  15.1612620  65.1371410  54.1776730  14.1392960  66.2481560
  39.6641280  14.1352030  66.5721700  39.0701600  14.0036730  67.3111740
  39.6565120  13.2990170  66.1063800  52.4702890  15.4067170  63.1331020
  52.0105860  16.1582980  62.7589040  51.8415350  14.6873640  63.0745820
  39.2953510  11.5010410  65.5229740  38.5687570  10.8815700  65.4555690
  39.3562660  11.8951020  64.6527820  42.8998610  13.7155410  62.3079150
  43.4163630  13.1042770  61.7827410  43.5495990  14.2184190  62.7990160
  45.6394110  14.6063900  63.1348130  45.9271920  14.3518200  62.2581140
  46.1517330  14.0541260  63.7253700  37.5783510  14.8184800  58.7326500
  37.4105550  14.1855480  59.4308390  36.7118020  15.0244200  58.3820690
  39.1846210  13.5118030  56.1776640  38.6593830  13.8926060  55.4738600
  39.1090790  14.1368800  56.8986350  45.7066470  15.5280000  70.5016330
  46.6333780  15.2924270  70.5452290  45.6916900  16.3552000  70.0202360
  53.9411530  15.0705570  57.4990580  54.1163720  14.3843310  56.8551500
  53.2433100  15.5952620  57.1067250  41.7839180  15.4600410  55.0525890
  42.5158000  15.1759690  54.5049780  42.0432850  15.2213690  55.9425270
  40.9453970  11.5765140  55.0572220  40.3162850  12.0450240  55.6058050
  41.0601800  10.7314360  55.4918410  52.2744030  14.7549860  70.3257370
  53.0669350  14.2599090  70.1183330  52.5677180  15.4340000  70.9332980
  48.4003690   5.6270800  41.2073420  48.3197740   4.7125410  40.9365130
  47.9868110   6.1237870  40.5013130  46.5321730   7.4049820  43.0882690
  45.7563830   6.9250260  43.3781260  47.1834660   6.7255470  42.9138850
  40.5487560   7.7169630  43.9658450  39.7172440   7.4618340  44.3654960
  41.1568540   7.7880400  44.7016370  50.5529160  11.8110010  41.8681820
  50.0910690  11.0397250  42.1968990  51.3654710  11.8376080  42.3734270
  40.5288820  11.7509720  44.1616470  40.8316860  10.8607460  43.9826690
  41.2732410  12.3079940  43.9338720  38.9579510   2.6771520  37.7500840
  38.0696210   3.0187490  37.6480720  39.2420700   2.4771840  36.8581670
  36.9212520   5.2777170  43.6340540  37.4928630   4.5099370  43.6344180
  36.9214060   5.5765930  42.7247150  46.7792470  14.0968020  41.4885810
  46.1603910  14.5525520  40.9180250  47.6344250  14.2519480  41.0875510
  45.9730720  10.0807010  43.0952850  45.9039000   9.1396950  42.9341980
  46.7350580  10.1708420  43.6675420  47.0035890   2.8877390  43.3221780
  47.3800710   2.0149270  43.2095450  46.9055400   3.2236090  42.4312220
  38.7824060   3.1822030  44.0291810  39.4634170   3.4460400  44.6479210
  38.4672110   2.3422900  44.3629820  42.9748630   4.2289390  43.1164400
  43.4826850   4.7270360  43.7569420  43.5061870   3.4524590  42.9403760
  55.0759560   2.3994580  46.8193750  54.3711730   2.7876290  46.3008860
  55.3417480   3.0944870  47.4214680  47.6455820   8.9807260  38.8817720
  47.0273090   9.4456710  38.3180440  48.1579070   9.6734740  39.2987230
  42.5087580   8.5083130  45.5601320  42.1756960   9.1352050  46.2022390
  42.6854260   9.0345010  44.7802990  51.0221490   2.3228210  43.0277660
  50.3177060   2.6113100  43.6080770  51.3833650   3.1328320  42.6677220
  41.7206680  10.4763930  47.3750500  42.3380680  11.1515010  47.0934950
  40.8599800  10.8851910  47.2838000  37.0139020   9.6663790  36.2557350
  36.6367000  10.1550890  35.5242250  37.2712090  10.3389070  36.8863880
  52.6384270  11.9403340  45.2905140  51.9547790  12.6102450  45.2821810
  53.1778560  12.1383990  44.5250000  54.0908410   1.7683000  43.4186870
  53.1433320   1.8021980  43.5502300  54.4158400   2.5821950  43.8036230
  50.1743010  13.7847470  44.0050320  50.1870170  13.3809760  43.1372580
  49.6218230  14.5594760  43.9011750  51.4688430  10.5063690  39.0940490
  51.3584760   9.5638020  39.2189910  51.4656680  10.8679330  39.9803250
  49.5728450   8.6877310  45.3332930  49.9897240   8.4737420  44.4986390
  50.2968270   8.9450100  45.9041550  47.0108710   6.1329010  38.4502980
  46.0837990   6.0666390  38.6791450  47.1633530   7.0709140  38.3358220
  46.9977790   2.4046010  35.4470140  46.0581460   2.5659970  35.5322600
  47.3161050   3.1231690  34.9006130  53.5190550   7.0864530  45.4249170
  52.6909180   7.1557620  44.9499300  54.1141030   7.6718840  44.9565000
  51.0406000   7.6949310  38.9538230  50.4218420   7.3568860  38.3064530
  51.0230450   7.0509070  39.6617420  50.4832560   3.8733850  46.3704040
  50.0703740   4.6987560  46.6244030  49.7508510   3.2878890  46.1780400
  42.6165350   6.6593750  41.2322710  42.2122350   5.9471000  40.7368610
  42.7028470   6.3146990  42.1210750  43.0847050  10.3461310  43.3961920
  42.7875340   9.7406780  42.7169700  44.0346870  10.3838620  43.2851280
  41.3293970   3.4336960  45.0121750  41.8808560   3.5432300  44.2375000
  41.8437480   3.8074560  45.7276980  51.1732660  13.9193180  47.0585020
  50.6963220  14.7265370  46.8657630  50.4894450  13.2671510  47.2111230
  42.1765480  10.0843000  50.0469720  41.2794010  10.3082970  50.2943120
  42.2018350  10.2077940  49.0981120  49.2170700   6.9336120  35.9610980
  49.6563980   6.0958550  35.8148800  49.9299120   7.5665520  36.0475120
  41.0036700   6.9556320  48.6227090  40.8644470   7.8279120  48.9914490
  40.1218060   6.6129130  48.4775030  47.3266080  11.8732190  39.9292220
  47.7661990  12.6156520  39.5147610  47.2652970  12.1158760  40.8531180
  42.8017050  12.8978020  50.8312240  42.7732480  13.3020970  49.9640670
  42.6382020  11.9688380  50.6683840  39.3169980   5.5538730  38.7329360
  39.1967580   6.2800820  38.1210630  39.0070870   4.7841640  38.2557270
  54.7531870  13.6805120  52.1276410  55.2291590  14.1588010  52.8065490
  55.3739030  13.6122610  51.4021910  36.9555350   8.7253870  44.5398000
  37.0335770   8.8602640  43.5953720  37.5697030   8.0169760  44.7326120
  38.2002980  10.4254060  40.9504180  37.7931060  10.5668650  40.0957780
  39.0915990  10.1414220  40.7475390  54.1565120  10.8717970  49.2876420
  54.2828180  10.6329850  48.3693600  54.1986500  10.0402510  49.7598500
  48.0181860  14.5745970  47.8571230  48.5326530  14.4853980  48.6593660
  47.1750940  14.9205670  48.1499140  49.9936260  14.8601310  37.2855230
  49.8337400  14.5704250  38.1837060  49.8282970  14.0841440  36.7500460
  42.4724640  14.6399840  39.0626850  42.2967120  13.7235380  38.8494650
  41.6180380  14.9987130  39.3024650  49.6962390  12.3688870  35.8453230
  49.0027550  12.3666160  35.1855510  50.4385250  11.9448190  35.4147400
  49.2612320  13.9951580  39.9201720  49.7169270  13.2140960  40.2340340
  49.6004840  14.7058400  40.4642900  54.0089130   2.9250430  50.2526160
  53.3933400   3.4330100  49.7241620  53.6885550   2.0248760  50.1952100
  37.0114870   9.7668040  47.0792460  37.1745910   9.2973400  46.2611830
  37.4767320   9.2591600  47.7441300  51.0707960   2.9851270  48.8485010
  50.2201550   2.6857020  49.1694080  50.9109750   3.2293280  47.9368830
  48.1657670   4.4853020  50.9483800  48.4911080   3.6516770  50.6086030
  48.9538000   5.0081540  51.0962130  41.5747860   4.0207370  39.8434280
  41.3488780   3.8044540  40.7480900  40.7940390   4.4535830  39.4980250
  48.8045620   4.0270740  38.4424930  48.2054510   4.7506540  38.2588550
  49.3525230   3.9647520  37.6601380  44.0147070   4.9192950  50.5094550
  43.9190670   3.9787680  50.3594950  44.8579050   5.1408020  50.1142620
  47.4110490   2.6634280  40.4728210  47.8040060   2.9806480  39.6596900
  47.7727340   1.7846160  40.5872730  36.6344890   3.1955200  33.9061130
  36.5519560   4.1385960  34.0476120  36.2827950   3.0530110  33.0273480
  47.9965630   5.2540030  44.5678990  47.2646750   5.7626840  44.9169090
  47.5989970   4.4370010  44.2667770  44.4343020   1.9294230  42.9731480
  44.4379080   1.4884180  42.1236020  45.3294140   2.2511560  43.0803300
  44.4963170   2.9306310  35.9638240  44.6175990   2.8892790  36.9124060
  44.1111680   3.7930460  35.8084970  43.5084670   5.2407450  35.3621540
  42.9401570   4.7925700  34.7357450  44.2173670   5.6000230  34.8286690
  38.5853850   9.1419470  49.2388270  38.2008640   8.5013140  49.8371230
  38.8966040   9.8455590  49.8083000  44.7350990   5.9896010  44.7196890
  45.1021120   5.5154580  45.4658230  44.5456050   6.8637580  45.0605230
  42.5250360   5.0304650  47.0381100  42.2207430   5.9096630  47.2631460
  43.4796820   5.0904440  47.0738540  41.0532150   9.2365640  37.6347950
  40.2794410   8.6963260  37.4746670  41.7826780   8.7172250  37.2965710
  51.8120130   8.2331000  43.4274340  52.5319250   8.7286290  43.0370450
  51.6101950   7.5548890  42.7828210  47.1938930   8.3040060  49.3143340
  47.1276240   7.3835730  49.0600930  46.5644070   8.4015500  50.0287980
  49.9878460   3.9988610  35.8665890  50.8758080   4.3105840  35.6917230
  49.9583550   3.1260860  35.4746470  41.0969550   8.9046020  41.2726760
  41.6148220   8.1014280  41.2183650  40.6453570   8.8425160  42.1143590
  45.9839050  10.1712300  36.5454060  46.3254750  10.9154530  36.0497380
  45.1551760  10.4843420  36.9078890  38.5814090   5.8707390  48.1852460
  38.2229030   6.5361240  48.7725800  38.2868650   5.0390940  48.5565080
  41.7827210   6.3291630  51.0692010  41.4827350   6.4748810  50.1719830
  42.5538450   5.7696920  50.9765400  47.1255660  11.1260630  49.0647140
  47.1400200  10.1941590  48.8466050  46.4180760  11.2120390  49.7036910
  52.2592730   5.3100450  35.3345750  52.1756450   5.7414670  34.4842190
  52.9786920   5.7698800  35.7672570  53.3366870   7.7667970  48.4115720
  52.6115060   8.3596750  48.2145110  53.8642330   7.7591510  47.6129090
  53.2879980  12.1642710  38.0627880  52.6456140  11.5098330  38.3371600
  52.9010640  12.5697800  37.2868550  48.8666460   9.4928140  41.9099570
  49.2190280   8.8956270  41.2500940  47.9828790   9.1672370  42.0807820
  44.9529740  10.2525830  39.3169980  45.6400870  10.7995040  39.6977570
  44.1662160  10.7966560  39.3519590  37.0922140   5.8698650  34.8087060
  37.9616990   6.1523450  35.0922980  36.6012460   6.6834520  34.6935870
  44.2556950   7.2571860  38.9295340  44.7119730   8.0677110  39.1555530
  43.9045160   6.9395000  39.7613830  46.5589560  12.7678200  46.1587640
  47.2031780  12.9737580  46.8361060  46.9219000  12.0066600  45.7058490
  47.8321640  10.7710550  44.8765090  48.4743870  10.0703710  44.9897260
  48.3570990  11.5508990  44.6961980  51.6777360  11.0559170  34.6004230
  51.4514940  10.3389610  35.1928870  51.2873560  10.8071610  33.7625980
  49.6059260  11.5705450  48.0801150  49.9415500  12.1572140  48.7579070
  48.6859600  11.4398160  48.3098940  51.2593610   8.9731110  36.2618390
  50.9715310   9.4343800  37.0496270  52.0545780   8.5128880  36.5302610
  37.4435250  13.3480890  49.8491090  37.5526370  12.4075630  49.7086480
  36.7915810  13.6135640  49.2004820  45.4347840  11.6196780  51.2489210
  45.1144710  10.9006020  51.7934900  44.7606200  12.2951850  51.3225270
  43.4762010  12.4657230  36.1922360  43.4672110  13.1986920  35.5766870
  42.5560370  12.2188810  36.2849320  39.0768650   7.6872120  36.9369120
  38.4696600   8.4271020  36.9464420  39.5518000   7.7771480  36.1107320
  46.4621610  12.5285470  34.8547550  46.5633590  12.3249460  33.9249530
  45.5623350  12.2743750  35.0595330  43.9847500   3.0865830  38.8371450
  43.2763650   3.5552170  39.2785060  44.2691980   2.4287840  39.4716640
  45.6103430   4.5062530  46.8363980  46.1088680   4.9808350  47.5015830
  45.7526380   3.5826050  47.0434010  45.1039720  15.0471790  39.5495220
  45.3581220  15.0093180  38.6274590  44.1552200  14.9205120  39.5423470
  51.1092300   5.9663670  41.1253730  50.1682440   5.9813900  41.3001420
  51.4236370   5.1799630  41.5714030  41.0873940   7.6483270  34.6857690
  41.8537210   7.5364630  35.2483120  41.1648630   6.9521240  34.0334460
  39.7820700   5.0808340  35.3690580  39.8624290   4.1335850  35.4807980
  40.6740450   5.4115220  35.4751240  53.1117880  13.1372520  42.8007990
  53.2365300  13.9603690  43.2731800  53.9783440  12.9263250  42.4532140
  40.5835410  15.2303730  42.4725120  41.3197890  14.6819190  42.7433690
  40.9676330  16.0959740  42.3331110  37.4680890  11.2977300  38.3466630
  36.5420670  11.5398440  38.3372040  37.9337320  12.1251560  38.2251380
  39.5893690  14.4149800  51.6610700  40.3906420  14.7361850  52.0746100
  39.0745510  14.0545380  52.3830610  48.4258320  10.5229670  51.6086110
  47.8196480  10.5461270  50.8681860  48.1212430   9.7912710  52.1453360
  49.8558690  14.2509960  50.2195520  50.8080440  14.1667980  50.1695760
  49.7086910  14.9151670  50.8929310  52.7467890  13.6304170  35.7187430
  52.4609400  13.2169310  34.9041610  52.5487440  14.5591880  35.5987950
  37.3091500   6.9023260  50.6046750  37.8130520   6.3230540  51.1762980
  36.5698920   7.1863490  51.1423120  44.2115120   9.6237450  34.1593040
  44.1065760   9.0089800  34.8854420  44.0439340   9.1003340  33.3756050
  44.3629440   8.3094250  50.1382270  43.5975110   8.8779250  50.0536940
  44.5445400   8.0170460  49.2450500  47.4517850   8.6857480  34.7635030
  46.9027950   9.1326780  35.4077770  48.0737110   8.1806730  35.2872700
  51.5052790  10.0399580  50.6957290  52.2462260  10.3775340  50.1924750
  50.7425470  10.2091640  50.1427060  39.3414580   5.0452850  51.4996820
  39.3819920   4.7466720  52.4082050  40.1960080   5.4460460  51.3404340
  43.1192970   7.6448400  36.6600330  43.5409390   7.4788270  37.5031720
  43.2443810   6.8348630  36.1655470  41.2820390   3.6244950  49.4671310
  40.7516850   3.1335900  48.8394650  41.9508460   4.0529150  48.9329240
  45.6320610   6.6686010  33.9077430  46.1526270   5.9535030  33.5418580
  46.2789010   7.3071880  34.2077940  50.1798450   8.0914410  49.2312500
  50.5939470   8.2459490  50.0802920  49.2449450   8.2169630  49.3938280
  50.6520620   5.4310570  51.2351650  51.2341390   4.6762890  51.1472130
  50.8282390   5.9618010  50.4583130  44.9413680   8.0434890  47.2008430
  45.3601790   8.8867620  47.0284670  44.0222310   8.1806930  46.9715210
  47.2777580   5.7751070  48.5846270  47.3973790   5.1792210  49.3241110
  48.1371580   5.8120760  48.1647570  49.6165480   6.3288260  47.1608780
  49.0900700   6.8530880  46.5573920  49.9596820   6.9615650  47.7918510
  42.0151870   3.7181630  33.6058490  41.8140930   2.8548990  33.9671830
  41.8443920   3.6314990  32.6680090  42.7921100  14.3487900  48.3166160
  42.2542190  15.0733960  47.9974860  43.0455060  13.8718240  47.5263500
  44.0446350   2.3172420  49.8422090  44.6346040   2.0088270  50.5299910
  43.2266590   1.8452170  49.9981990  45.6483310  15.5839110  48.5752810
  45.5742010  16.4874250  48.8825180  44.7462150  15.2651010  48.5474880
  39.8364800  10.1224670  34.4266170  40.2739670  10.6654340  35.0823750
  40.3212530   9.2971620  34.4362510  37.0510600  12.9113700  41.8786430
  37.3813610  12.0434760  41.6465070  37.4801600  13.1172220  42.7091390
  41.6472520  11.2422710  39.5388400  41.3468060  11.1187680  40.4392310
  41.5410010  10.3831300  39.1304130  37.5400810  13.7784290  44.6168060
  37.1031800  13.9585090  45.4492210  38.1078490  14.5358910  44.4749780
  53.1762990  13.2801290  48.9045370  52.5764980  13.3393850  48.1609290
  53.3056890  12.3406270  49.0342220  54.4164440  11.0219110  34.2415080
  53.5857400  11.0895760  34.7122310  54.5936270  11.9123230  33.9381940
  53.8720900   7.7666590  36.7449280  54.6339810   8.3363240  36.8508970
  53.8875270   7.1993790  37.5157590  37.3725240   6.2904520  40.9756940
  36.7174080   6.0216160  40.3316640  38.2103190   6.1809000  40.5258920
  54.8780870   8.6216690  41.5891210  55.2489700   7.8384010  41.1827180
  55.5182800   9.3105790  41.4108510  51.8614630  10.0053270  47.0021530
  51.0474470  10.4350430  47.2647320  52.2688830  10.6171680  46.3890580
  53.9240070   8.0600960  33.9021800  54.1988910   8.9679840  33.7741020
  53.7350810   7.9963490  34.8383790  53.8205410   5.9969950  38.8951230
  53.4449010   5.2297880  38.4632520  53.0908530   6.3792650  39.3826160
  38.4101170   6.6757090  45.5160280  38.7774210   6.5884490  46.3956300
  37.8411990   5.9123640  45.4167140  53.2105030   5.1441470  48.5290750
  52.9791120   4.9154220  47.6288700  53.4709580   6.0641020  48.4835640
  37.9617170   3.5866180  49.4218700  37.0673220   3.5532940  49.7612410
  38.5014720   3.7852970  50.1869950  36.5863320   3.5003450  36.9182270
  35.6827400   3.7633650  36.7433930  37.0703940   3.7714620  36.1382230
  53.0956370   4.2227440  42.1958470  53.6193850   3.7290090  41.5648640
  53.6815790   4.3577800  42.9406040  53.2746090   4.3067310  45.7178020
  52.3248800   4.2730850  45.8323010  53.4559100   5.2167420  45.4827790
  39.1290530   2.5568990  34.8276650  39.8382230   2.1352210  34.3423930
  38.4130470   2.6244220  34.1960000  52.5856340   3.4800790  38.1350880
  53.0815460   3.2471660  38.9199760  52.3872410   2.6412630  37.7188520
  54.0143500   2.1161740  40.6688560  53.9042780   1.9617780  41.6070830
  54.7751090   1.5882680  40.4263970  51.9190680  14.7571870  40.5289800
  52.5149750  14.4356440  39.8524220  52.1768830  14.2843690  41.3203070
  39.8253250  11.1889780  50.6780430  39.7822880  10.8182690  51.5594890
  39.9564260  12.1267350  50.8182250  43.5259280  12.7449370  46.2790150
  43.2850640  13.0123930  45.3920670  44.4661920  12.9155100  46.3341010
  54.7863440  14.7643750  47.0800790  54.2921720  15.1612620  46.3627920
  54.1776730  14.1392960  47.4738070  39.6641280  14.1352030  47.7978210
  39.0701600  14.0036730  48.5368250  39.6565120  13.2990170  47.3320310
  52.4702890  15.4067170  44.3587530  52.0105860  16.1582980  43.9845550
  51.8415350  14.6873640  44.3002330  39.2953510  11.5010410  46.7486250
  38.5687570  10.8815700  46.6812200  39.3562660  11.8951020  45.8784330
  42.8998610  13.7155410  43.5335660  43.4163630  13.1042770  43.0083920
  43.5495990  14.2184190  44.0246670  45.6394110  14.6063900  44.3604640
  45.9271920  14.3518200  43.4837650  46.1517330  14.0541260  44.9510210
  37.5783510  14.8184800  39.9583010  37.4105550  14.1855480  40.6564900
  36.7118020  15.0244200  39.6077200  45.7066470  15.5280000  51.7272840
  46.6333780  15.2924270  51.7708800  45.6916900  16.3552000  51.2458870
  53.9411530  15.0705570  38.7247090  54.1163720  14.3843310  38.0808010
  53.2433100  15.5952620  38.3323760  52.2744030  14.7549860  51.5513880
  53.0669350  14.2599090  51.3439840  52.5677180  15.4340000  52.1589490
  48.4003690   5.6270800  22.4329930  48.3197740   4.7125410  22.1621640
  47.9868110   6.1237870  21.7269640  46.5321730   7.4049820  24.3139200
  45.7563830   6.9250260  24.6037770  47.1834660   6.7255470  24.1395360
  40.5487560   7.7169630  25.1914960  39.7172440   7.4618340  25.5911470
  41.1568540   7.7880400  25.9272880  50.5529160  11.8110010  23.0938330
  50.0910690  11.0397250  23.4225500  51.3654710  11.8376080  23.5990780
  40.5288820  11.7509720  25.3872980  40.8316860  10.8607460  25.2083200
  41.2732410  12.3079940  25.1595230  38.9579510   2.6771520  18.9757350
  38.0696210   3.0187490  18.8737230  39.2420700   2.4771840  18.0838180
  36.9212520   5.2777170  24.8597050  37.4928630   4.5099370  24.8600690
  36.9214060   5.5765930  23.9503660  46.7792470  14.0968020  22.7142320
  46.1603910  14.5525520  22.1436760  47.6344250  14.2519480  22.3132020
  45.9730720  10.0807010  24.3209360  45.9039000   9.1396950  24.1598490
  46.7350580  10.1708420  24.8931930  47.0035890   2.8877390  24.5478290
  47.3800710   2.0149270  24.4351960  46.9055400   3.2236090  23.6568730
  38.7824060   3.1822030  25.2548320  39.4634170   3.4460400  25.8735720
  38.4672110   2.3422900  25.5886330  42.9748630   4.2289390  24.3420910
  43.4826850   4.7270360  24.9825930  43.5061870   3.4524590  24.1660270
  55.0759560   2.3994580  28.0450260  54.3711730   2.7876290  27.5265370
  55.3417480   3.0944870  28.6471190  47.6455820   8.9807260  20.1074230
  47.0273090   9.4456710  19.5436950  48.1579070   9.6734740  20.5243740
  42.5087580   8.5083130  26.7857830  42.1756960   9.1352050  27.4278900
  42.6854260   9.0345010  26.0059500  51.0221490   2.3228210  24.2534170
  50.3177060   2.6113100  24.8337280  51.3833650   3.1328320  23.8933730
  41.7206680  10.4763930  28.6007010  42.3380680  11.1515010  28.3191460
  40.8599800  10.8851910  28.5094510  37.0139020   9.6663790  17.4813860
  36.6367000  10.1550890  16.7498760  37.2712090  10.3389070  18.1120390
  52.6384270  11.9403340  26.5161650  51.9547790  12.6102450  26.5078320
  53.1778560  12.1383990  25.7506510  54.0908410   1.7683000  24.6443380
  53.1433320   1.8021980  24.7758810  54.4158400   2.5821950  25.0292740
  50.1743010  13.7847470  25.2306830  50.1870170  13.3809760  24.3629090
  49.6218230  14.5594760  25.1268260  51.4688430  10.5063690  20.3197000
  51.3584760   9.5638020  20.4446420  51.4656680  10.8679330  21.2059760
  49.5728450   8.6877310  26.5589440  49.9897240   8.4737420  25.7242900
  50.2968270   8.9450100  27.1298060  47.0108710   6.1329010  19.6759490
  46.0837990   6.0666390  19.9047960  47.1633530   7.0709140  19.5614730
  46.9977790   2.4046010  16.6726650  46.0581460   2.5659970  16.7579110
  47.3161050   3.1231690  16.1262640  53.5190550   7.0864530  26.6505680
  52.6909180   7.1557620  26.1755810  54.1141030   7.6718840  26.1821510
  51.0406000   7.6949310  20.1794740  50.4218420   7.3568860  19.5321040
  51.0230450   7.0509070  20.8873930  50.4832560   3.8733850  27.5960550
  50.0703740   4.6987560  27.8500540  49.7508510   3.2878890  27.4036910
  42.6165350   6.6593750  22.4579220  42.2122350   5.9471000  21.9625120
  42.7028470   6.3146990  23.3467260  43.0847050  10.3461310  24.6218430
  42.7875340   9.7406780  23.9426210  44.0346870  10.3838620  24.5107790
  41.3293970   3.4336960  26.2378260  41.8808560   3.5432300  25.4631510
  41.8437480   3.8074560  26.9533490  51.1732660  13.9193180  28.2841530
  50.6963220  14.7265370  28.0914140  50.4894450  13.2671510  28.4367740
  42.1765480  10.0843000  31.2726230  41.2794010  10.3082970  31.5199630
  42.2018350  10.2077940  30.3237630  49.2170700   6.9336120  17.1867490
  49.6563980   6.0958550  17.0405310  49.9299120   7.5665520  17.2731630
  41.0036700   6.9556320  29.8483600  40.8644470   7.8279120  30.2171000
  40.1218060   6.6129130  29.7031540  47.3266080  11.8732190  21.1548730
  47.7661990  12.6156520  20.7404120  47.2652970  12.1158760  22.0787690
  39.3169980   5.5538730  19.9585870  39.1967580   6.2800820  19.3467140
  39.0070870   4.7841640  19.4813780  54.7531870  13.6805120  33.3532920
  55.2291590  14.1588010  34.0322000  55.3739030  13.6122610  32.6278420
  36.9555350   8.7253870  25.7654510  37.0335770   8.8602640  24.8210230
  37.5697030   8.0169760  25.9582630  38.2002980  10.4254060  22.1760690
  37.7931060  10.5668650  21.3214290  39.0915990  10.1414220  21.9731900
  54.1565120  10.8717970  30.5132930  54.2828180  10.6329850  29.5950110
  54.1986500  10.0402510  30.9855010  49.9936260  14.8601310  18.5111740
  49.8337400  14.5704250  19.4093570  49.8282970  14.0841440  17.9756970
  42.4724640  14.6399840  20.2883360  42.2967120  13.7235380  20.0751160
  41.6180380  14.9987130  20.5281160  49.6962390  12.3688870  17.0709740
  49.0027550  12.3666160  16.4112020  50.4385250  11.9448190  16.6403910
  49.2612320  13.9951580  21.1458230  49.7169270  13.2140960  21.4596850
  49.6004840  14.7058400  21.6899410  54.0089130   2.9250430  31.4782670
  53.3933400   3.4330100  30.9498130  53.6885550   2.0248760  31.4208610
  37.0114870   9.7668040  28.3048970  37.1745910   9.2973400  27.4868340
  37.4767320   9.2591600  28.9697810  51.0707960   2.9851270  30.0741520
  50.2201550   2.6857020  30.3950590  50.9109750   3.2293280  29.1625340
  48.1657670   4.4853020  32.1740310  48.4911080   3.6516770  31.8342540
  48.9538000   5.0081540  32.3218640  41.5747860   4.0207370  21.0690790
  41.3488780   3.8044540  21.9737410  40.7940390   4.4535830  20.7236760
  48.8045620   4.0270740  19.6681440  48.2054510   4.7506540  19.4845060
  49.3525230   3.9647520  18.8857890  44.0147070   4.9192950  31.7351060
  43.9190670   3.9787680  31.5851460  44.8579050   5.1408020  31.3399130
  47.4110490   2.6634280  21.6984720  47.8040060   2.9806480  20.8853410
  47.7727340   1.7846160  21.8129240  36.6344890   3.1955200  15.1317640
  36.5519560   4.1385960  15.2732630  36.2827950   3.0530110  14.2529990
  47.9965630   5.2540030  25.7935500  47.2646750   5.7626840  26.1425600
  47.5989970   4.4370010  25.4924280  44.4343020   1.9294230  24.1987990
  44.4379080   1.4884180  23.3492530  45.3294140   2.2511560  24.3059810
  44.4963170   2.9306310  17.1894750  44.6175990   2.8892790  18.1380570
  44.1111680   3.7930460  17.0341480  43.5084670   5.2407450  16.5878050
  42.9401570   4.7925700  15.9613960  44.2173670   5.6000230  16.0543200
  38.5853850   9.1419470  30.4644780  38.2008640   8.5013140  31.0627740
  38.8966040   9.8455590  31.0339510  44.7350990   5.9896010  25.9453400
  45.1021120   5.5154580  26.6914740  44.5456050   6.8637580  26.2861740
  42.5250360   5.0304650  28.2637610  42.2207430   5.9096630  28.4887970
  43.4796820   5.0904440  28.2995050  41.0532150   9.2365640  18.8604460
  40.2794410   8.6963260  18.7003180  41.7826780   8.7172250  18.5222220
  51.8120130   8.2331000  24.6530850  52.5319250   8.7286290  24.2626960
  51.6101950   7.5548890  24.0084720  47.1938930   8.3040060  30.5399850
  47.1276240   7.3835730  30.2857440  46.5644070   8.4015500  31.2544490
  49.9878460   3.9988610  17.0922400  50.8758080   4.3105840  16.9173740
  49.9583550   3.1260860  16.7002980  41.0969550   8.9046020  22.4983270
  41.6148220   8.1014280  22.4440160  40.6453570   8.8425160  23.3400100
  45.9839050  10.1712300  17.7710570  46.3254750  10.9154530  17.2753890
  45.1551760  10.4843420  18.1335400  38.5814090   5.8707390  29.4108970
  38.2229030   6.5361240  29.9982310  38.2868650   5.0390940  29.7821590
  41.7827210   6.3291630  32.2948520  41.4827350   6.4748810  31.3976340
  42.5538450   5.7696920  32.2021910  47.1255660  11.1260630  30.2903650
  47.1400200  10.1941590  30.0722560  46.4180760  11.2120390  30.9293420
  52.2592730   5.3100450  16.5602260  52.1756450   5.7414670  15.7098700
  52.9786920   5.7698800  16.9929080  53.3366870   7.7667970  29.6372230
  52.6115060   8.3596750  29.4401620  53.8642330   7.7591510  28.8385600
  53.2879980  12.1642710  19.2884390  52.6456140  11.5098330  19.5628110
  52.9010640  12.5697800  18.5125060  48.8666460   9.4928140  23.1356080
  49.2190280   8.8956270  22.4757450  47.9828790   9.1672370  23.3064330
  44.9529740  10.2525830  20.5426490  45.6400870  10.7995040  20.9234080
  44.1662160  10.7966560  20.5776100  37.0922140   5.8698650  16.0343570
  37.9616990   6.1523450  16.3179490  36.6012460   6.6834520  15.9192380
  44.2556950   7.2571860  20.1551850  44.7119730   8.0677110  20.3812040
  43.9045160   6.9395000  20.9870340  46.5589560  12.7678200  27.3844150
  47.2031780  12.9737580  28.0617570  46.9219000  12.0066600  26.9315000
  47.8321640  10.7710550  26.1021600  48.4743870  10.0703710  26.2153770
  48.3570990  11.5508990  25.9218490  51.6777360  11.0559170  15.8260740
  51.4514940  10.3389610  16.4185380  51.2873560  10.8071610  14.9882490
  49.6059260  11.5705450  29.3057660  49.9415500  12.1572140  29.9835580
  48.6859600  11.4398160  29.5355450  37.4593390  15.0826030  16.6005200
  37.8191030  15.6815370  15.9462470  37.3185730  15.6285920  17.3740230
  51.2593610   8.9731110  17.4874900  50.9715310   9.4343800  18.2752780
  52.0545780   8.5128880  17.7559120  45.4347840  11.6196780  32.4745720
  45.1144710  10.9006020  33.0191410  44.7606200  12.2951850  32.5481780
  43.4762010  12.4657230  17.4178870  43.4672110  13.1986920  16.8023380
  42.5560370  12.2188810  17.5105830  39.0768650   7.6872120  18.1625630
  38.4696600   8.4271020  18.1720930  39.5518000   7.7771480  17.3363830
  46.4621610  12.5285470  16.0804060  46.5633590  12.3249460  15.1506040
  45.5623350  12.2743750  16.2851840  43.9847500   3.0865830  20.0627960
  43.2763650   3.5552170  20.5041570  44.2691980   2.4287840  20.6973150
  45.6103430   4.5062530  28.0620490  46.1088680   4.9808350  28.7272340
  45.7526380   3.5826050  28.2690520  45.1039720  15.0471790  20.7751730
  45.3581220  15.0093180  19.8531100  44.1552200  14.9205120  20.7679980
  51.1092300   5.9663670  22.3510240  50.1682440   5.9813900  22.5257930
  51.4236370   5.1799630  22.7970540  41.0873940   7.6483270  15.9114200
  41.8537210   7.5364630  16.4739630  41.1648630   6.9521240  15.2590970
  39.7820700   5.0808340  16.5947090  39.8624290   4.1335850  16.7064490
  40.6740450   5.4115220  16.7007750  53.1117880  13.1372520  24.0264500
  53.2365300  13.9603690  24.4988310  53.9783440  12.9263250  23.6788650
  40.5835410  15.2303730  23.6981630  41.3197890  14.6819190  23.9690200
  40.9676330  16.0959740  23.5587620  37.4680890  11.2977300  19.5723140
  36.5420670  11.5398440  19.5628550  37.9337320  12.1251560  19.4507890
  43.6937720  14.4034040  15.5207200  44.4866330  14.6922870  15.0688990
  43.1742070  13.9726210  14.8419680  48.4258320  10.5229670  32.8342620
  47.8196480  10.5461270  32.0938370  48.1212430   9.7912710  33.3709870
  49.8558690  14.2509960  31.4452030  50.8080440  14.1667980  31.3952270
  49.7086910  14.9151670  32.1185820  52.7467890  13.6304170  16.9443940
  52.4609400  13.2169310  16.1298120  52.5487440  14.5591880  16.8244460
  37.3091500   6.9023260  31.8303260  37.8130520   6.3230540  32.4019490
  36.5698920   7.1863490  32.3679630  44.2115120   9.6237450  15.3849550
  44.1065760   9.0089800  16.1110930  44.0439340   9.1003340  14.6012560
  44.3629440   8.3094250  31.3638780  43.5975110   8.8779250  31.2793450
  44.5445400   8.0170460  30.4707010  47.4517850   8.6857480  15.9891540
  46.9027950   9.1326780  16.6334280  48.0737110   8.1806730  16.5129210
  51.5052790  10.0399580  31.9213800  52.2462260  10.3775340  31.4181260
  50.7425470  10.2091640  31.3683570  39.3414580   5.0452850  32.7253330
  39.3819920   4.7466720  33.6338560  40.1960080   5.4460460  32.5660850
  43.1192970   7.6448400  17.8856840  43.5409390   7.4788270  18.7288230
  43.2443810   6.8348630  17.3911980  41.2820390   3.6244950  30.6927820
  40.7516850   3.1335900  30.0651160  41.9508460   4.0529150  30.1585750
  45.6320610   6.6686010  15.1333940  46.1526270   5.9535030  14.7675090
  46.2789010   7.3071880  15.4334450  50.1798450   8.0914410  30.4569010
  50.5939470   8.2459490  31.3059430  49.2449450   8.2169630  30.6194790
  50.6520620   5.4310570  32.4608160  51.2341390   4.6762890  32.3728640
  50.8282390   5.9618010  31.6839640  44.9413680   8.0434890  28.4264940
  45.3601790   8.8867620  28.2541180  44.0222310   8.1806930  28.1971720
  47.2777580   5.7751070  29.8102780  47.3973790   5.1792210  30.5497620
  48.1371580   5.8120760  29.3904080  49.6165480   6.3288260  28.3865290
  49.0900700   6.8530880  27.7830430  49.9596820   6.9615650  29.0175020
  42.0151870   3.7181630  14.8315000  41.8140930   2.8548990  15.1928340
  41.8443920   3.6314990  13.8936600  44.0446350   2.3172420  31.0678600
  44.6346040   2.0088270  31.7556420  43.2266590   1.8452170  31.2238500
  46.1968640  14.7497620  17.4235680  47.0919430  15.0882590  17.4454440
  46.2286270  14.0277030  16.7959960  39.8364800  10.1224670  15.6522680
  40.2739670  10.6654340  16.3080260  40.3212530   9.2971620  15.6619020
  37.0510600  12.9113700  23.1042940  37.3813610  12.0434760  22.8721580
  37.4801600  13.1172220  23.9347900  41.6472520  11.2422710  20.7644910
  41.3468060  11.1187680  21.6648820  41.5410010  10.3831300  20.3560640
  37.5400810  13.7784290  25.8424570  37.1031800  13.9585090  26.6748720
  38.1078490  14.5358910  25.7006290  53.1762990  13.2801290  30.1301880
  52.5764980  13.3393850  29.3865800  53.3056890  12.3406270  30.2598730
  54.4164440  11.0219110  15.4671590  53.5857400  11.0895760  15.9378820
  54.5936270  11.9123230  15.1638450  53.8720900   7.7666590  17.9705790
  54.6339810   8.3363240  18.0765480  53.8875270   7.1993790  18.7414100
  37.3725240   6.2904520  22.2013450  36.7174080   6.0216160  21.5573150
  38.2103190   6.1809000  21.7515430  54.8780870   8.6216690  22.8147720
  55.2489700   7.8384010  22.4083690  55.5182800   9.3105790  22.6365020
  51.8614630  10.0053270  28.2278040  51.0474470  10.4350430  28.4903830
  52.2688830  10.6171680  27.6147090  53.9240070   8.0600960  15.1278310
  54.1988910   8.9679840  14.9997530  53.7350810   7.9963490  16.0640300
  53.8205410   5.9969950  20.1207740  53.4449010   5.2297880  19.6889030
  53.0908530   6.3792650  20.6082670  38.4101170   6.6757090  26.7416790
  38.7774210   6.5884490  27.6212810  37.8411990   5.9123640  26.6423650
  53.2105030   5.1441470  29.7547260  52.9791120   4.9154220  28.8545210
  53.4709580   6.0641020  29.7092150  37.9617170   3.5866180  30.6475210
  37.0673220   3.5532940  30.9868920  38.5014720   3.7852970  31.4126460
  36.5863320   3.5003450  18.1438780  35.6827400   3.7633650  17.9690440
  37.0703940   3.7714620  17.3638740  53.0956370   4.2227440  23.4214980
  53.6193850   3.7290090  22.7905150  53.6815790   4.3577800  24.1662550
  53.2746090   4.3067310  26.9434530  52.3248800   4.2730850  27.0579520
  53.4559100   5.2167420  26.7084300  39.1290530   2.5568990  16.0533160
  39.8382230   2.1352210  15.5680440  38.4130470   2.6244220  15.4216510
  52.5856340   3.4800790  19.3607390  53.0815460   3.2471660  20.1456270
  52.3872410   2.6412630  18.9445030  54.0143500   2.1161740  21.8945070
  53.9042780   1.9617780  22.8327340  54.7751090   1.5882680  21.6520480
  51.9190680  14.7571870  21.7546310  52.5149750  14.4356440  21.0780730
  52.1768830  14.2843690  22.5459580  39.8253250  11.1889780  31.9036940
  39.7822880  10.8182690  32.7851400  39.9564260  12.1267350  32.0438760
  43.5259280  12.7449370  27.5046660  43.2850640  13.0123930  26.6177180
  44.4661920  12.9155100  27.5597520  54.7863440  14.7643750  28.3057300
  54.2921720  15.1612620  27.5884430  54.1776730  14.1392960  28.6994580
  52.4702890  15.4067170  25.5844040  52.0105860  16.1582980  25.2102060
  51.8415350  14.6873640  25.5258840  39.2953510  11.5010410  27.9742760
  38.5687570  10.8815700  27.9068710  39.3562660  11.8951020  27.1040840
  42.8998610  13.7155410  24.7592170  43.4163630  13.1042770  24.2340430
  43.5495990  14.2184190  25.2503180  45.6394110  14.6063900  25.5861150
  45.9271920  14.3518200  24.7094160  46.1517330  14.0541260  26.1766720
  37.5783510  14.8184800  21.1839520  37.4105550  14.1855480  21.8821410
  36.7118020  15.0244200  20.8333710  39.1846210  13.5118030  18.6289660
  38.6593830  13.8926060  17.9251620  39.1090790  14.1368800  19.3499370
  53.9411530  15.0705570  19.9503600  54.1163720  14.3843310  19.3064520
  53.2433100  15.5952620  19.5580270  41.7839180  15.4600410  17.5038910
  42.5158000  15.1759690  16.9562800  42.0432850  15.2213690  18.3938290
  40.9453970  11.5765140  17.5085240  40.3162850  12.0450240  18.0571070
  41.0601800  10.7314360  17.9431430  52.2744030  14.7549860  32.7770390
  53.0669350  14.2599090  32.5696350  52.5677180  15.4340000  33.3846000
  48.4003690   5.6270800   3.6586440  48.3197740   4.7125410   3.3878150
  47.9868110   6.1237870   2.9526150  46.5321730   7.4049820   5.5395710
  45.7563830   6.9250260   5.8294280  47.1834660   6.7255470   5.3651870
  40.5487560   7.7169630   6.4171470  39.7172440   7.4618340   6.8167980
  41.1568540   7.7880400   7.1529390  50.5529160  11.8110010   4.3194840
  50.0910690  11.0397250   4.6482010  51.3654710  11.8376080   4.8247290
  40.5288820  11.7509720   6.6129490  40.8316860  10.8607460   6.4339710
  41.2732410  12.3079940   6.3851740  36.9212520   5.2777170   6.0853560
  37.4928630   4.5099370   6.0857200  36.9214060   5.5765930   5.1760170
  46.7792470  14.0968020   3.9398830  46.1603910  14.5525520   3.3693270
  47.6344250  14.2519480   3.5388530  45.9730720  10.0807010   5.5465870
  45.9039000   9.1396950   5.3855000  46.7350580  10.1708420   6.1188440
  47.0035890   2.8877390   5.7734800  47.3800710   2.0149270   5.6608470
  46.9055400   3.2236090   4.8825240  38.7824060   3.1822030   6.4804830
  39.4634170   3.4460400   7.0992230  38.4672110   2.3422900   6.8142840
  42.9748630   4.2289390   5.5677420  43.4826850   4.7270360   6.2082440
  43.5061870   3.4524590   5.3916780  55.0759560   2.3994580   9.2706770
  54.3711730   2.7876290   8.7521880  55.3417480   3.0944870   9.8727700
  42.5087580   8.5083130   8.0114340  42.1756960   9.1352050   8.6535410
  42.6854260   9.0345010   7.2316010  51.0221490   2.3228210   5.4790680
  50.3177060   2.6113100   6.0593790  51.3833650   3.1328320   5.1190240
  41.7206680  10.4763930   9.8263520  42.3380680  11.1515010   9.5447970
  40.8599800  10.8851910   9.7351020  52.6384270  11.9403340   7.7418160
  51.9547790  12.6102450   7.7334830  53.1778560  12.1383990   6.9763020
  54.0908410   1.7683000   5.8699890  53.1433320   1.8021980   6.0015320
  54.4158400   2.5821950   6.2549250  50.1743010  13.7847470   6.4563340
  50.1870170  13.3809760   5.5885600  49.6218230  14.5594760   6.3524770
  49.5728450   8.6877310   7.7845950  49.9897240   8.4737420   6.9499410
  50.2968270   8.9450100   8.3554570  53.5190550   7.0864530   7.8762190
  52.6909180   7.1557620   7.4012320  54.1141030   7.6718840   7.4078020
  50.4832560   3.8733850   8.8217060  50.0703740   4.6987560   9.0757050
  49.7508510   3.2878890   8.6293420  42.6165350   6.6593750   3.6835730
  42.2122350   5.9471000   3.1881630  42.7028470   6.3146990   4.5723770
  43.0847050  10.3461310   5.8474940  42.7875340   9.7406780   5.1682720
  44.0346870  10.3838620   5.7364300  41.3293970   3.4336960   7.4634770
  41.8808560   3.5432300   6.6888020  41.8437480   3.8074560   8.1790000
  51.1732660  13.9193180   9.5098040  50.6963220  14.7265370   9.3170650
  50.4894450  13.2671510   9.6624250  42.1765480  10.0843000  12.4982740
  41.2794010  10.3082970  12.7456140  42.2018350  10.2077940  11.5494140
  41.0036700   6.9556320  11.0740110  40.8644470   7.8279120  11.4427510
  40.1218060   6.6129130  10.9288050  47.3266080  11.8732190   2.3805240
  47.7661990  12.6156520   1.9660630  47.2652970  12.1158760   3.3044200
  42.8017050  12.8978020  13.2825260  42.7732480  13.3020970  12.4153690
  42.6382020  11.9688380  13.1196860  54.7531870  13.6805120  14.5789430
  55.2291590  14.1588010  15.2578510  55.3739030  13.6122610  13.8534930
  36.9555350   8.7253870   6.9911020  37.0335770   8.8602640   6.0466740
  37.5697030   8.0169760   7.1839140  38.2002980  10.4254060   3.4017200
  37.7931060  10.5668650   2.5470800  39.0915990  10.1414220   3.1988410
  54.1565120  10.8717970  11.7389440  54.2828180  10.6329850  10.8206620
  54.1986500  10.0402510  12.2111520  48.0181860  14.5745970  10.3084250
  48.5326530  14.4853980  11.1106680  47.1750940  14.9205670  10.6012160
  49.2612320  13.9951580   2.3714740  49.7169270  13.2140960   2.6853360
  49.6004840  14.7058400   2.9155920  54.0089130   2.9250430  12.7039180
  53.3933400   3.4330100  12.1754640  53.6885550   2.0248760  12.6465120
  37.0114870   9.7668040   9.5305480  37.1745910   9.2973400   8.7124850
  37.4767320   9.2591600  10.1954320  51.0707960   2.9851270  11.2998030
  50.2201550   2.6857020  11.6207100  50.9109750   3.2293280  10.3881850
  48.1657670   4.4853020  13.3996820  48.4911080   3.6516770  13.0599050
  48.9538000   5.0081540  13.5475150  41.5747860   4.0207370   2.2947300
  41.3488780   3.8044540   3.1993920  40.7940390   4.4535830   1.9493270
  44.0147070   4.9192950  12.9607570  43.9190670   3.9787680  12.8107970
  44.8579050   5.1408020  12.5655640  47.4110490   2.6634280   2.9241230
  47.8040060   2.9806480   2.1109920  47.7727340   1.7846160   3.0385750
  47.9965630   5.2540030   7.0192010  47.2646750   5.7626840   7.3682110
  47.5989970   4.4370010   6.7180790  44.4343020   1.9294230   5.4244500
  44.4379080   1.4884180   4.5749040  45.3294140   2.2511560   5.5316320
  38.5853850   9.1419470  11.6901290  38.2008640   8.5013140  12.2884250
  38.8966040   9.8455590  12.2596020  44.7350990   5.9896010   7.1709910
  45.1021120   5.5154580   7.9171250  44.5456050   6.8637580   7.5118250
  42.5250360   5.0304650   9.4894120  42.2207430   5.9096630   9.7144480
  43.4796820   5.0904440   9.5251560  51.8120130   8.2331000   5.8787360
  52.5319250   8.7286290   5.4883470  51.6101950   7.5548890   5.2341230
  47.1938930   8.3040060  11.7656360  47.1276240   7.3835730  11.5113950
  46.5644070   8.4015500  12.4801000  41.0969550   8.9046020   3.7239780
  41.6148220   8.1014280   3.6696670  40.6453570   8.8425160   4.5656610
  38.5814090   5.8707390  10.6365480  38.2229030   6.5361240  11.2238820
  38.2868650   5.0390940  11.0078100  41.7827210   6.3291630  13.5205030
  41.4827350   6.4748810  12.6232850  42.5538450   5.7696920  13.4278420
  47.1255660  11.1260630  11.5160160  47.1400200  10.1941590  11.2979070
  46.4180760  11.2120390  12.1549930  53.3366870   7.7667970  10.8628740
  52.6115060   8.3596750  10.6658130  53.8642330   7.7591510  10.0642110
  48.8666460   9.4928140   4.3612590  49.2190280   8.8956270   3.7013960
  47.9828790   9.1672370   4.5320840  44.9529740  10.2525830   1.7683000
  45.6400870  10.7995040   2.1490590  44.1662160  10.7966560   1.8032610
  46.5589560  12.7678200   8.6100660  47.2031780  12.9737580   9.2874080
  46.9219000  12.0066600   8.1571510  47.8321640  10.7710550   7.3278110
  48.4743870  10.0703710   7.4410280  48.3570990  11.5508990   7.1475000
  49.6059260  11.5705450  10.5314170  49.9415500  12.1572140  11.2092090
  48.6859600  11.4398160  10.7611960  37.4435250  13.3480890  12.3004110
  37.5526370  12.4075630  12.1599500  36.7915810  13.6135640  11.6517840
  45.4347840  11.6196780  13.7002230  45.1144710  10.9006020  14.2447920
  44.7606200  12.2951850  13.7738290  45.6103430   4.5062530   9.2877000
  46.1088680   4.9808350   9.9528850  45.7526380   3.5826050   9.4947030
  51.1092300   5.9663670   3.5766750  50.1682440   5.9813900   3.7514440
  51.4236370   5.1799630   4.0227050  53.1117880  13.1372520   5.2521010
  53.2365300  13.9603690   5.7244820  53.9783440  12.9263250   4.9045160
  40.5835410  15.2303730   4.9238140  41.3197890  14.6819190   5.1946710
  40.9676330  16.0959740   4.7844130  39.5893690  14.4149800  14.1123720
  40.3906420  14.7361850  14.5259120  39.0745510  14.0545380  14.8343630
  48.4258320  10.5229670  14.0599130  47.8196480  10.5461270  13.3194880
  48.1212430   9.7912710  14.5966380  49.8558690  14.2509960  12.6708540
  50.8080440  14.1667980  12.6208780  49.7086910  14.9151670  13.3442330
  37.3091500   6.9023260  13.0559770  37.8130520   6.3230540  13.6276000
  36.5698920   7.1863490  13.5936140  44.3629440   8.3094250  12.5895290
  43.5975110   8.8779250  12.5049960  44.5445400   8.0170460  11.6963520
  51.5052790  10.0399580  13.1470310  52.2462260  10.3775340  12.6437770
  50.7425470  10.2091640  12.5940080  39.3414580   5.0452850  13.9509840
  39.3819920   4.7466720  14.8595070  40.1960080   5.4460460  13.7917360
  41.2820390   3.6244950  11.9184330  40.7516850   3.1335900  11.2907670
  41.9508460   4.0529150  11.3842260  50.1798450   8.0914410  11.6825520
  50.5939470   8.2459490  12.5315940  49.2449450   8.2169630  11.8451300
  50.6520620   5.4310570  13.6864670  51.2341390   4.6762890  13.5985150
  50.8282390   5.9618010  12.9096150  44.9413680   8.0434890   9.6521450
  45.3601790   8.8867620   9.4797690  44.0222310   8.1806930   9.4228230
  47.2777580   5.7751070  11.0359290  47.3973790   5.1792210  11.7754130
  48.1371580   5.8120760  10.6160590  49.6165480   6.3288260   9.6121800
  49.0900700   6.8530880   9.0086940  49.9596820   6.9615650  10.2431530
  42.7921100  14.3487900  10.7679180  42.2542190  15.0733960  10.4487880
  43.0455060  13.8718240   9.9776520  44.0446350   2.3172420  12.2935110
  44.6346040   2.0088270  12.9812930  43.2266590   1.8452170  12.4495010
  45.6483310  15.5839110  11.0265830  45.5742010  16.4874250  11.3338200
  44.7462150  15.2651010  10.9987900  37.0510600  12.9113700   4.3299450
  37.3813610  12.0434760   4.0978090  37.4801600  13.1172220   5.1604410
  37.5400810  13.7784290   7.0681080  37.1031800  13.9585090   7.9005230
  38.1078490  14.5358910   6.9262800  53.1762990  13.2801290  11.3558390
  52.5764980  13.3393850  10.6122310  53.3056890  12.3406270  11.4855240
  37.3725240   6.2904520   3.4269960  36.7174080   6.0216160   2.7829660
  38.2103190   6.1809000   2.9771940  54.8780870   8.6216690   4.0404230
  55.2489700   7.8384010   3.6340200  55.5182800   9.3105790   3.8621530
  51.8614630  10.0053270   9.4534550  51.0474470  10.4350430   9.7160340
  52.2688830  10.6171680   8.8403600  38.4101170   6.6757090   7.9673300
  38.7774210   6.5884490   8.8469320  37.8411990   5.9123640   7.8680160
  53.2105030   5.1441470  10.9803770  52.9791120   4.9154220  10.0801720
  53.4709580   6.0641020  10.9348660  37.9617170   3.5866180  11.8731720
  37.0673220   3.5532940  12.2125430  38.5014720   3.7852970  12.6382970
  53.0956370   4.2227440   4.6471490  53.6193850   3.7290090   4.0161660
  53.6815790   4.3577800   5.3919060  53.2746090   4.3067310   8.1691040
  52.3248800   4.2730850   8.2836030  53.4559100   5.2167420   7.9340810
  54.0143500   2.1161740   3.1201580  53.9042780   1.9617780   4.0583850
  54.7751090   1.5882680   2.8776990  51.9190680  14.7571870   2.9802820
  52.5149750  14.4356440   2.3037240  52.1768830  14.2843690   3.7716090
  39.8253250  11.1889780  13.1293450  39.7822880  10.8182690  14.0107910
  39.9564260  12.1267350  13.2695270  43.5259280  12.7449370   8.7303170
  43.2850640  13.0123930   7.8433690  44.4661920  12.9155100   8.7854030
  54.7863440  14.7643750   9.5313810  54.2921720  15.1612620   8.8140940
  54.1776730  14.1392960   9.9251090  39.6641280  14.1352030  10.2491230
  39.0701600  14.0036730  10.9881270  39.6565120  13.2990170   9.7833330
  52.4702890  15.4067170   6.8100550  52.0105860  16.1582980   6.4358570
  51.8415350  14.6873640   6.7515350  39.2953510  11.5010410   9.1999270
  38.5687570  10.8815700   9.1325220  39.3562660  11.8951020   8.3297350
  42.8998610  13.7155410   5.9848680  43.4163630  13.1042770   5.4596940
  43.5495990  14.2184190   6.4759690  45.6394110  14.6063900   6.8117660
  45.9271920  14.3518200   5.9350670  46.1517330  14.0541260   7.4023230
  37.5783510  14.8184800   2.4096030  37.4105550  14.1855480   3.1077920
  36.7118020  15.0244200   2.0590220  45.7066470  15.5280000  14.1785860
  46.6333780  15.2924270  14.2221820  45.6916900  16.3552000  13.6971890
  52.2744030  14.7549860  14.0026900  53.0669350  14.2599090  13.7952860
  52.5677180  15.4340000  14.6102510  29.6260200  61.9501270  78.7560400
  29.5454250  61.0355880  78.4852110  29.2124620  62.4468340  78.0500110
  27.7578240  63.7280290  80.6369670  26.9820340  63.2480730  80.9268240
  28.4091170  63.0485940  80.4625830  21.7744070  64.0400100  81.5145430
  20.9428950  63.7848810  81.9141940  22.3825050  64.1110870  82.2503350
  20.1836020  59.0001990  75.2987820  19.2952720  59.3417960  75.1967700
  20.4677210  58.8002310  74.4068650  18.1469030  61.6007640  81.1827520
  18.7185140  60.8329840  81.1831160  18.1470570  61.8996400  80.2734130
  27.1987230  66.4037480  80.6439830  27.1295510  65.4627420  80.4828960
  27.9607090  66.4938890  81.2162400  19.3893900  57.0092000  82.9696450
  19.2096740  56.1117750  83.2499210  18.9873980  57.5563870  83.6443400
  28.2292400  59.2107860  80.8708760  28.6057220  58.3379740  80.7582430
  28.1311910  59.5466560  79.9799200  22.3597410  57.5833490  76.3326200
  22.4664160  58.4837220  76.6394960  21.4489770  57.5351460  76.0420850
  32.0116520  56.7058300  77.8037100  32.8326140  56.2154870  77.8462580
  32.0450600  57.2955960  78.5568940  20.0080570  59.5052500  81.5778790
  20.6890680  59.7690870  82.1966190  19.6928620  58.6653370  81.9116800
  24.2005140  60.5519860  80.6651380  24.7083360  61.0500830  81.3056400
  24.7318380  59.7755060  80.4890740  28.8712330  65.3037730  76.4304700
  28.2529600  65.7687180  75.8667420  29.3835580  65.9965210  76.8474210
  23.7344090  64.8313600  83.1088300  23.4013470  65.4582520  83.7509370
  23.9110770  65.3575480  82.3289970  32.2478000  58.6458680  80.5764640
  31.5433570  58.9343570  81.1567750  32.6090160  59.4558790  80.2164200
  22.1656570  56.9028380  82.9385250  22.5073380  57.7470430  82.6439120
  21.2272380  57.0512120  83.0550590  18.2395530  65.9894260  73.8044330
  17.8623510  66.4781360  73.0729230  18.4968600  66.6619540  74.4350860
  35.3164920  58.0913470  80.9673850  34.3689830  58.1252450  81.0989280
  35.6414910  58.9052420  81.3523210  25.8484460  54.3910650  79.2629840
  26.1559440  53.8357540  78.5465340  24.9185160  54.5255110  79.0802830
  32.6944940  66.8294160  76.6427470  32.5841270  65.8868490  76.7676890
  32.6913190  67.1909800  77.5290230  30.7984960  65.0107780  82.8819910
  31.2153750  64.7967890  82.0473370  31.5224780  65.2680570  83.4528530
  28.2365220  62.4559480  75.9989960  27.3094500  62.3896860  76.2278430
  28.3890040  63.3939610  75.8845200  28.2234300  58.7276480  72.9957120
  27.2837970  58.8890440  73.0809580  28.5417560  59.4462160  72.4493110
  34.7447060  63.4095000  82.9736150  33.9165690  63.4788090  82.4986280
  35.3397540  63.9949310  82.5051980  32.2662510  64.0179780  76.5025210
  31.6474930  63.6799330  75.8551510  32.2486960  63.3739540  77.2104400
  23.8421860  62.9824220  78.7809690  23.4378860  62.2701470  78.2855590
  23.9284980  62.6377460  79.6697730  24.3103560  66.6691780  80.9448900
  24.0131850  66.0637250  80.2656680  25.2603380  66.7069090  80.8338260
  22.5550480  59.7567430  82.5608730  23.1065070  59.8662770  81.7861980
  23.0693990  60.1305030  83.2763960  30.4427210  63.2566590  73.5097960
  30.8820490  62.4189020  73.3635780  31.1555630  63.8895990  73.5962100
  34.0244350  54.5109400  71.8239000  33.7117010  54.6036230  72.7238070
  34.7856820  55.0890430  71.7736430  20.5426490  61.8769200  76.2816340
  20.4224090  62.6031290  75.6697610  20.2327380  61.1072110  75.8044250
  18.1811860  65.0484340  82.0884980  18.2592280  65.1833110  81.1440700
  18.7953540  64.3400230  82.2813100  19.4259490  66.7484530  78.4991160
  19.0187570  66.8899120  77.6444760  20.3172500  66.4644690  78.2962370
  23.0090150  55.2204270  79.6640010  22.5658300  56.0013810  79.3324530
  23.5675140  55.5434160  80.3710950  26.1248970  54.8414970  74.5445840
  25.5003150  54.8374840  75.2699150  26.0379090  53.9745930  74.1481810
  25.0466050  55.7651600  81.5229610  25.3438380  56.6714430  81.4421630
  25.5951610  55.2770380  80.9089180  22.8004370  60.3437840  77.3921260
  22.5745290  60.1275010  78.2967880  22.0196900  60.7766300  77.0467230
  30.0302130  60.3501210  75.9911910  29.4311020  61.0737010  75.8075530
  30.5781740  60.2877990  75.2088360  28.6367000  58.9864750  78.0215190
  29.0296570  59.3036950  77.2083880  28.9983850  58.1076630  78.1359710
  17.6731170  55.5765550  80.2445390  17.3844220  56.1468410  80.9570370
  18.4176930  55.0970000  80.6076620  17.8601400  59.5185670  71.4548110
  17.7776070  60.4616430  71.5963100  17.5084460  59.3760580  70.5760460
  29.2222140  61.5770500  82.1165970  28.4903260  62.0857310  82.4656070
  28.8246480  60.7600480  81.8154750  25.6599530  58.2524700  80.5218460
  25.6635590  57.8114650  79.6723000  26.5550650  58.5742030  80.6290280
  21.5101910  58.1351190  79.4812670  21.1701960  58.6126420  80.2379720
  20.7479230  57.6816310  79.1213770  25.7219680  59.2536780  73.5125220
  25.8432500  59.2123260  74.4611040  25.3368190  60.1160930  73.3571950
  29.6848050  57.0304180  81.5288910  29.7020790  57.4812830  82.3730760
  29.4363630  56.1309820  81.7422350  24.7341180  61.5637920  72.9108520
  24.1658080  61.1156170  72.2844430  25.4430180  61.9230700  72.3773670
  25.9607500  62.3126480  82.2683870  26.3277630  61.8385050  83.0145210
  25.7712560  63.1868050  82.6092210  18.8247990  57.0570170  78.3977340
  18.5394910  56.6925840  79.2355960  18.7626850  56.3250630  77.7840480
  22.2788660  65.5596110  75.1834930  21.5050920  65.0193730  75.0233650
  23.0083290  65.0402720  74.8452690  33.0376640  64.5561470  80.9761320
  33.7575760  65.0516760  80.5857430  32.8358460  63.8779360  80.3315190
  28.4986580  55.9499430  75.1190710  27.6851190  55.4512600  75.0436020
  28.3048530  56.7897680  74.7027060  31.2134970  60.3219080  73.4152870
  32.1014590  60.6336310  73.2404210  31.1840060  59.4491330  73.0233450
  22.3226060  65.2276490  78.8213740  22.8404730  64.4244750  78.7670630
  21.8710080  65.1655630  79.6630570  27.2095560  66.4942770  74.0941040
  27.5511260  67.2385000  73.5984360  26.3808270  66.8073890  74.4565870
  33.4849240  61.6330920  72.8832730  33.4012960  62.0645140  72.0329170
  34.2043430  62.0929270  73.3159550  30.0922970  65.8158610  79.4586550
  30.4446790  65.2186740  78.7987920  29.2085300  65.4902840  79.6294800
  26.1786250  66.5756300  76.8656960  26.8657380  67.1225510  77.2464550
  25.3918670  67.1197030  76.9006570  18.3178650  62.1929120  72.3574040
  19.1873500  62.4753920  72.6409960  17.8268970  63.0064990  72.2422850
  25.4813460  63.5802330  76.4782320  25.9376240  64.3907580  76.7042510
  25.1301670  63.2625470  77.3100810  21.3825240  53.9239980  76.9504840
  21.2539870  53.9157880  77.8989760  20.5587260  54.2623070  76.5995850
  32.9033870  67.3789640  72.1491210  32.6771450  66.6620080  72.7415850
  32.5130070  67.1302080  71.3112960  32.4850120  65.2961580  73.8105370
  32.1971820  65.7574270  74.5983250  33.2802290  64.8359350  74.0789590
  20.3025160  64.0102590  74.4856100  19.6953110  64.7501490  74.4951400
  20.7774510  64.1001950  73.6594300  33.2419980  57.1310350  74.9700550
  32.6133140  57.2356020  74.2558780  32.7471900  57.3507130  75.7594430
  25.2104010  59.4096300  76.3858430  24.5020160  59.8782640  76.8272040
  25.4948490  58.7518310  77.0203620  29.2419440  56.1346960  77.8254220
  29.1187220  56.1533090  76.8763730  30.1904000  56.1825900  77.9452620
  23.4139030  57.7181380  73.7609140  24.2629560  58.1551530  73.6949330
  23.0470300  58.0301640  74.5881200  32.3348810  62.2894140  78.6740710
  31.3938950  62.3044370  78.8488400  32.6492880  61.5030100  79.1201010
  22.3130450  63.9713740  72.2344670  23.0793720  63.8595100  72.7970100
  22.3905140  63.2751710  71.5821440  21.0077210  61.4038810  72.9177560
  21.0880800  60.4566320  73.0294960  21.8996960  61.7345690  73.0238220
  25.4371630  65.9467920  71.7080020  25.3322270  65.3320270  72.4341400
  25.2695850  65.4233810  70.9243030  28.6774360  65.0087950  72.3122010
  28.1284460  65.4557250  72.9564750  29.2993620  64.5037200  72.8359680
  24.3449480  63.9678870  74.2087310  24.7665900  63.8018740  75.0518700
  24.4700320  63.1579100  73.7142450  26.8577120  62.9916480  71.4564410
  27.3782780  62.2765500  71.0905560  27.5045520  63.6302350  71.7564920
  23.2408380  60.0412100  71.1545470  23.0397440  59.1779460  71.5158810
  23.0700430  59.9545460  70.2167070  30.7196690  54.8520330  73.6832350
  30.9998980  54.0088230  74.0391770  29.9462420  55.0843440  74.1971100
  22.0391180  57.1412720  71.1423350  22.3417080  57.1480150  70.2342500
  22.7785770  56.7910580  71.6391010  25.2576110  56.0847340  72.1279550
  24.9098110  55.4071330  71.5482000  25.4588880  55.6236850  72.9422940
  21.0621310  66.4455140  71.9753150  21.4996180  66.9884810  72.6310730
  21.5469040  65.6202090  71.9849490  22.8729030  67.5653180  77.0875380
  22.5724570  67.4418150  77.9879290  22.7666520  66.7061770  76.6791110
  35.0977410  64.0897060  74.2936260  35.8596320  64.6593710  74.3995950
  35.1131780  63.5224260  75.0644570  18.5981750  62.6134990  78.5243920
  17.9430590  62.3446630  77.8803620  19.4359700  62.5039470  78.0745900
  36.1037380  64.9447160  79.1378190  36.4746210  64.1614480  78.7314160
  36.7439310  65.6336260  78.9595490  35.1496580  64.3831430  71.4508780
  35.4245420  65.2910310  71.3228000  34.9607320  64.3193960  72.3870770
  31.5472190  57.4076280  72.7462410  31.9657070  57.2207260  71.9059070
  31.2408250  56.5555330  73.0565340  35.0461920  62.3200420  76.4438210
  34.6705520  61.5528350  76.0119500  34.3165040  62.7023120  76.9313140
  17.8119830  59.8233920  74.4669250  16.9083910  60.0864120  74.2920910
  18.2960450  60.0945090  73.6869210  34.3212880  60.5457910  79.7445450
  34.8450360  60.0520560  79.1135620  34.9072300  60.6808270  80.4893020
  34.5002600  60.6297780  83.2665000  33.5505310  60.5961320  83.3809990
  34.6815610  61.5397890  83.0314770  20.3547040  58.8799460  72.3763630
  21.0638740  58.4582680  71.8910910  19.6386980  58.9474690  71.7446980
  20.0021200  54.9338790  71.4166280  20.7249330  55.4747730  71.7347500
  20.2745720  54.6602210  70.5407820  33.8112850  59.8031260  75.6837860
  34.3071970  59.5702130  76.4686740  33.6128920  58.9643100  75.2675500
  19.6913390  54.1844980  81.3188900  20.3389580  53.6342360  80.8784060
  20.1115230  54.4388130  82.1404710  35.2400010  58.4392210  78.2175540
  35.1299290  58.2848250  79.1557810  36.0007600  57.9113150  77.9750950
  36.1290280  56.2700130  71.4581680  37.0539590  56.1381310  71.2499970
  36.1066070  56.3492950  72.4118130  36.2028770  57.0410790  74.0838390
  35.4080270  56.9755910  74.6131300  36.4072050  57.9761430  74.0723740
  28.0827630  54.6684570  82.4888130  27.2999420  55.1430070  82.7684890
  27.7890560  53.7639400  82.3801310  32.6348700  55.3707670  80.5337220
  33.0756790  55.3152770  79.6858820  32.3656290  56.2865680  80.6047400
  34.4987270  55.0022910  78.5446040  34.4375670  54.0584130  78.3977060
  35.2779300  55.1103000  79.0899500  19.4268040  54.9732050  75.0101850
  20.1847400  55.0860930  74.4365880  18.9645210  55.8101250  74.9645280
  25.9681850  57.0871320  78.0004160  25.1556360  56.7128210  77.6600040
  26.4723490  56.3316400  78.3025350  30.4706830  53.7513770  79.2387230
  31.0736200  54.3233980  79.7135750  29.7299820  54.3153210  79.0161130
  33.6141430  54.1535330  74.5127510  33.8092060  55.0518780  74.7794940
  32.8271300  53.9222410  75.0060460  21.7993190  55.4996100  73.5503820
  22.3285950  54.7125900  73.4211770  22.4321510  56.1787290  73.7839350
  23.9931030  55.2371240  76.6049210  23.3633770  54.5358550  76.7719340
  23.4536170  55.9975370  76.3882370  29.6260200  61.9501270  59.9816910
  29.5454250  61.0355880  59.7108620  29.2124620  62.4468340  59.2756620
  27.7578240  63.7280290  61.8626180  26.9820340  63.2480730  62.1524750
  28.4091170  63.0485940  61.6882340  21.7744070  64.0400100  62.7401940
  20.9428950  63.7848810  63.1398450  22.3825050  64.1110870  63.4759860
  20.1836020  59.0001990  56.5244330  19.2952720  59.3417960  56.4224210
  20.4677210  58.8002310  55.6325160  18.1469030  61.6007640  62.4084030
  18.7185140  60.8329840  62.4087670  18.1470570  61.8996400  61.4990640
  27.1987230  66.4037480  61.8696340  27.1295510  65.4627420  61.7085470
  27.9607090  66.4938890  62.4418910  19.3893900  57.0092000  64.1952960
  19.2096740  56.1117750  64.4755720  18.9873980  57.5563870  64.8699910
  28.2292400  59.2107860  62.0965270  28.6057220  58.3379740  61.9838940
  28.1311910  59.5466560  61.2055710  22.3597410  57.5833490  57.5582710
  22.4664160  58.4837220  57.8651470  21.4489770  57.5351460  57.2677360
  32.0116520  56.7058300  59.0293610  32.8326140  56.2154870  59.0719090
  32.0450600  57.2955960  59.7825450  20.0080570  59.5052500  62.8035300
  20.6890680  59.7690870  63.4222700  19.6928620  58.6653370  63.1373310
  24.2005140  60.5519860  61.8907890  24.7083360  61.0500830  62.5312910
  24.7318380  59.7755060  61.7147250  36.3016070  58.7225050  65.5937240
  35.5968240  59.1106760  65.0752350  36.5673990  59.4175340  66.1958170
  22.4841240  55.1918420  66.1571310  22.4859680  55.7090810  65.3517210
  21.6545550  54.7148600  66.1341240  28.8712330  65.3037730  57.6561210
  28.2529600  65.7687180  57.0923930  29.3835580  65.9965210  58.0730720
  23.7344090  64.8313600  64.3344810  23.4013470  65.4582520  64.9765880
  23.9110770  65.3575480  63.5546480  32.2478000  58.6458680  61.8021150
  31.5433570  58.9343570  62.3824260  32.6090160  59.4558790  61.4420710
  22.1656570  56.9028380  64.1641760  22.5073380  57.7470430  63.8695630
  21.2272380  57.0512120  64.2807100  22.9463190  66.7994400  66.1493990
  23.5637190  67.4745480  65.8678440  22.0856310  67.2082380  66.0581490
  18.2395530  65.9894260  55.0300840  17.8623510  66.4781360  54.2985740
  18.4968600  66.6619540  55.6607370  35.3164920  58.0913470  62.1930360
  34.3689830  58.1252450  62.3245790  35.6414910  58.9052420  62.5779720
  32.6944940  66.8294160  57.8683980  32.5841270  65.8868490  57.9933400
  32.6913190  67.1909800  58.7546740  30.7984960  65.0107780  64.1076420
  31.2153750  64.7967890  63.2729880  31.5224780  65.2680570  64.6785040
  28.2365220  62.4559480  57.2246470  27.3094500  62.3896860  57.4534940
  28.3890040  63.3939610  57.1101710  28.2234300  58.7276480  54.2213630
  27.2837970  58.8890440  54.3066090  28.5417560  59.4462160  53.6749620
  34.7447060  63.4095000  64.1992660  33.9165690  63.4788090  63.7242790
  35.3397540  63.9949310  63.7308490  32.2662510  64.0179780  57.7281720
  31.6474930  63.6799330  57.0808020  32.2486960  63.3739540  58.4360910
  31.7089070  60.1964320  65.1447530  31.2960250  61.0218030  65.3987520
  30.9765020  59.6109360  64.9523890  23.8421860  62.9824220  60.0066200
  23.4378860  62.2701470  59.5112100  23.9284980  62.6377460  60.8954240
  24.3103560  66.6691780  62.1705410  24.0131850  66.0637250  61.4913190
  25.2603380  66.7069090  62.0594770  22.5550480  59.7567430  63.7865240
  23.1065070  59.8662770  63.0118490  23.0693990  60.1305030  64.5020470
  23.4021990  66.4073470  68.8213210  22.5050520  66.6313440  69.0686610
  23.4274860  66.5308410  67.8724610  30.4427210  63.2566590  54.7354470
  30.8820490  62.4189020  54.5892290  31.1555630  63.8895990  54.8218610
  22.2293210  63.2786790  67.3970580  22.0900980  64.1509590  67.7657980
  21.3474570  62.9359600  67.2518520  20.5426490  61.8769200  57.5072850
  20.4224090  62.6031290  56.8954120  20.2327380  61.1072110  57.0300760
  18.1811860  65.0484340  63.3141490  18.2592280  65.1833110  62.3697210
  18.7953540  64.3400230  63.5069610  19.4259490  66.7484530  59.7247670
  19.0187570  66.8899120  58.8701270  20.3172500  66.4644690  59.5218880
  35.3821630  67.1948440  68.0619910  35.5084690  66.9560320  67.1437090
  35.4243010  66.3632980  68.5341990  35.2345640  59.2480900  69.0269650
  34.6189910  59.7560570  68.4985110  34.9142060  58.3479230  68.9695590
  18.2371380  66.0898510  65.8535950  18.4002420  65.6203870  65.0355320
  18.7023830  65.5822070  66.5184790  23.0090150  55.2204270  60.8896520
  22.5658300  56.0013810  60.5581040  23.5675140  55.5434160  61.5967460
  27.2959960  58.0872790  66.4931840  26.8339330  58.2955810  67.3051780
  26.8938070  57.2732140  66.1902510  32.2964470  59.3081740  67.6228500
  31.4458060  59.0087490  67.9437570  32.1366260  59.5523750  66.7112320
  29.3914180  60.8083490  69.7227290  29.7167590  59.9747240  69.3829520
  30.1794510  61.3312010  69.8705620  26.1248970  54.8414970  55.7702350
  25.5003150  54.8374840  56.4955660  26.0379090  53.9745930  55.3738320
  25.0466050  55.7651600  62.7486120  25.3438380  56.6714430  62.6678140
  25.5951610  55.2770380  62.1345690  22.8004370  60.3437840  58.6177770
  22.5745290  60.1275010  59.5224390  22.0196900  60.7766300  58.2723740
  30.0302130  60.3501210  57.2168420  29.4311020  61.0737010  57.0332040
  30.5781740  60.2877990  56.4344870  25.2403580  61.2423420  69.2838040
  25.1447180  60.3018150  69.1338440  26.0835560  61.4638490  68.8886110
  28.6367000  58.9864750  59.2471700  29.0296570  59.3036950  58.4340390
  28.9983850  58.1076630  59.3616220  20.3714120  57.6537090  67.4371820
  19.9777510  58.5012300  67.6444600  19.6832520  57.0163460  67.6280460
  26.9459170  57.7372060  70.5068560  26.2557490  57.5444260  71.1414650
  27.6891470  58.0206700  71.0392860  17.6731170  55.5765550  61.4701900
  17.3844220  56.1468410  62.1826880  18.4176930  55.0970000  61.8333130
  17.8601400  59.5185670  52.6804620  17.7776070  60.4616430  52.8219610
  17.5084460  59.3760580  51.8016970  29.2222140  61.5770500  63.3422480
  28.4903260  62.0857310  63.6912580  28.8246480  60.7600480  63.0411260
  25.6599530  58.2524700  61.7474970  25.6635590  57.8114650  60.8979510
  26.5550650  58.5742030  61.8546790  21.5101910  58.1351190  60.7069180
  21.1701960  58.6126420  61.4636230  20.7479230  57.6816310  60.3470280
  25.7219680  59.2536780  54.7381730  25.8432500  59.2123260  55.6867550
  25.3368190  60.1160930  54.5828460  29.6848050  57.0304180  62.7545420
  29.7020790  57.4812830  63.5987270  29.4363630  56.1309820  62.9678860
  24.7341180  61.5637920  54.1365030  24.1658080  61.1156170  53.5100940
  25.4430180  61.9230700  53.6030180  33.1118800  54.4436360  68.5931800
  33.4364570  53.7126020  69.1189780  33.1475310  54.1250000  67.6912790
  19.8110360  65.4649940  68.0131760  19.4265150  64.8243610  68.6114720
  20.1222550  66.1686060  68.5826490  25.9607500  62.3126480  63.4940380
  26.3277630  61.8385050  64.2401720  25.7712560  63.1868050  63.8348720
  18.8247990  57.0570170  59.6233850  18.5394910  56.6925840  60.4612470
  18.7626850  56.3250630  59.0096990  23.7506870  61.3535120  65.8124590
  23.4463940  62.2327100  66.0374950  24.7053330  61.4134910  65.8482030
  22.2788660  65.5596110  56.4091440  21.5050920  65.0193730  56.2490160
  23.0083290  65.0402720  56.0709200  33.0376640  64.5561470  62.2017830
  33.7575760  65.0516760  61.8113940  32.8358460  63.8779360  61.5571700
  28.4986580  55.9499430  56.3447220  27.6851190  55.4512600  56.2692530
  28.3048530  56.7897680  55.9283570  28.4195440  64.6270530  68.0886830
  28.3532750  63.7066200  67.8344420  27.7900580  64.7245970  68.8031470
  31.2134970  60.3219080  54.6409380  32.1014590  60.6336310  54.4660720
  31.1840060  59.4491330  54.2489960  22.3226060  65.2276490  60.0470250
  22.8404730  64.4244750  59.9927140  21.8710080  65.1655630  60.8887080
  27.2095560  66.4942770  55.3197550  27.5511260  67.2385000  54.8240870
  26.3808270  66.8073890  55.6822380  19.8070600  62.1937860  66.9595950
  19.4485540  62.8591710  67.5469290  19.5125160  61.3621410  67.3308570
  23.0083720  62.6522100  69.8435500  22.7083860  62.7979280  68.9463320
  23.7794960  62.0927390  69.7508890  28.3512170  67.4491100  67.8390630
  28.3656710  66.5172060  67.6209540  27.6437270  67.5350860  68.4780400
  33.4849240  61.6330920  54.1089240  33.4012960  62.0645140  53.2585680
  34.2043430  62.0929270  54.5416060  34.5623380  64.0898440  67.1859210
  33.8371570  64.6827220  66.9888600  35.0898840  64.0821980  66.3872580
  30.0922970  65.8158610  60.6843060  30.4446790  65.2186740  60.0244430
  29.2085300  65.4902840  60.8551310  26.1786250  66.5756300  58.0913470
  26.8657380  67.1225510  58.4721060  25.3918670  67.1197030  58.1263080
  18.3178650  62.1929120  53.5830550  19.1873500  62.4753920  53.8666470
  17.8268970  63.0064990  53.4679360  25.4813460  63.5802330  57.7038830
  25.9376240  64.3907580  57.9299020  25.1301670  63.2625470  58.5357320
  32.9033870  67.3789640  53.3747720  32.6771450  66.6620080  53.9672360
  32.5130070  67.1302080  52.5369470  18.3819170  55.6831100  67.6368050
  17.6677690  55.8828020  68.2420660  18.8014210  54.9070670  68.0082850
  32.4850120  65.2961580  55.0361880  32.1971820  65.7574270  55.8239760
  33.2802290  64.8359350  55.3046100  20.3025160  64.0102590  55.7112610
  19.6953110  64.7501490  55.7207910  20.7774510  64.1001950  54.8850810
  29.8757950  58.1753410  65.3869500  30.2438770  57.3548620  65.7149070
  29.0156150  58.2355300  65.8025150  33.2419980  57.1310350  56.1957060
  32.6133140  57.2356020  55.4815290  32.7471900  57.3507130  56.9850940
  25.2104010  59.4096300  57.6114940  24.5020160  59.8782640  58.0528550
  25.4948490  58.7518310  58.2460130  26.8359940  60.8293000  65.6107470
  27.3345190  61.3038820  66.2759320  26.9782890  59.9056520  65.8177500
  29.2419440  56.1346960  59.0510730  29.1187220  56.1533090  58.1020240
  30.1904000  56.1825900  59.1709130  23.4139030  57.7181380  54.9865650
  24.2629560  58.1551530  54.9205840  23.0470300  58.0301640  55.8137710
  34.0426800  57.0460960  66.4535860  33.5400400  57.7866360  66.7929670
  34.8583460  57.4344960  66.1372650  32.3348810  62.2894140  59.8997220
  31.3938950  62.3044370  60.0744910  32.6492880  61.5030100  60.3457520
  22.3130450  63.9713740  53.4601180  23.0793720  63.8595100  54.0226610
  22.3905140  63.2751710  52.8077950  21.0077210  61.4038810  54.1434070
  21.0880800  60.4566320  54.2551470  21.8996960  61.7345690  54.2494730
  29.6514830  66.8460140  70.3829600  29.0452990  66.8691740  69.6425350
  29.3468940  66.1143180  70.9196850  18.5348010  63.2253730  69.3790240
  19.0387030  62.6461010  69.9506470  17.7955430  63.5093960  69.9166610
  25.4371630  65.9467920  52.9336530  25.3322270  65.3320270  53.6597910
  25.2695850  65.4233810  52.1499540  25.5885950  64.6324720  68.9125760
  24.8231620  65.2009720  68.8280430  25.7701910  64.3400930  68.0193990
  28.6774360  65.0087950  53.5378520  28.1284460  65.4557250  54.1821260
  29.2993620  64.5037200  54.0616190  32.7309300  66.3630050  69.4700780
  33.4718770  66.7005810  68.9668240  31.9681980  66.5322110  68.9170550
  20.5671090  61.3683320  70.2740310  20.6076430  61.0697190  71.1825540
  21.4216590  61.7690930  70.1147830  24.3449480  63.9678870  55.4343820
  24.7665900  63.8018740  56.2775210  24.4700320  63.1579100  54.9398960
  22.5076900  59.9475420  68.2414800  21.9773360  59.4566370  67.6138140
  23.1764970  60.3759620  67.7072730  26.8577120  62.9916480  52.6820920
  27.3782780  62.2765500  52.3162070  27.5045520  63.6302350  52.9821430
  31.4054960  64.4144880  68.0055990  31.8195980  64.5689960  68.8546410
  30.4705960  64.5400100  68.1681770  31.8777130  61.7541040  70.0095140
  32.4597900  60.9993360  69.9215620  32.0538900  62.2848480  69.2326620
  22.9949200  56.9137790  68.3212090  22.9006070  56.2958540  67.5962960
  22.4146590  57.6404080  68.0942000  25.7610640  55.4711030  65.3539480
  25.3127940  55.4935290  64.5085030  25.1275840  55.0730050  65.9509780
  26.1670190  64.3665360  65.9751920  26.5858300  65.2098090  65.8028160
  25.2478820  64.5037400  65.7458700  28.5034090  62.0981540  67.3589760
  28.6230300  61.5022680  68.0984600  29.3628090  62.1351230  66.9391060
  30.8421990  62.6518730  65.9352270  30.3157210  63.1761350  65.3317410
  31.1853330  63.2846120  66.5662000  23.2408380  60.0412100  52.3801980
  23.0397440  59.1779460  52.7415320  23.0700430  59.9545460  51.4423580
  25.2702860  58.6402890  68.6165580  25.8602550  58.3318740  69.3043400
  24.4523100  58.1682640  68.7725480  30.0896290  58.2568700  68.8498600
  29.4011810  57.5950240  68.7848590  30.8102310  57.8106970  69.2947060
  30.7196690  54.8520330  54.9088860  30.9998980  54.0088230  55.2648280
  29.9462420  55.0843440  55.4227610  22.0391180  57.1412720  52.3679860
  22.3417080  57.1480150  51.4599010  22.7785770  56.7910580  52.8647520
  25.2576110  56.0847340  53.3536060  24.9098110  55.4071330  52.7738510
  25.4588880  55.6236850  54.1679450  21.0621310  66.4455140  53.2009660
  21.4996180  66.9884810  53.8567240  21.5469040  65.6202090  53.2106000
  22.8729030  67.5653180  58.3131890  22.5724570  67.4418150  59.2135800
  22.7666520  66.7061770  57.9047620  35.0977410  64.0897060  55.5192770
  35.8596320  64.6593710  55.6252460  35.1131780  63.5224260  56.2901080
  18.5981750  62.6134990  59.7500430  17.9430590  62.3446630  59.1060130
  19.4359700  62.5039470  59.3002410  36.1037380  64.9447160  60.3634700
  36.4746210  64.1614480  59.9570670  36.7439310  65.6336260  60.1852000
  33.0871140  66.3283740  65.7765020  32.2730980  66.7580900  66.0390810
  33.4945340  66.9402150  65.1634070  35.1496580  64.3831430  52.6765290
  35.4245420  65.2910310  52.5484510  34.9607320  64.3193960  53.6127280
  31.5472190  57.4076280  53.9718920  31.9657070  57.2207260  53.1315580
  31.2408250  56.5555330  54.2821850  35.0461920  62.3200420  57.6694720
  34.6705520  61.5528350  57.2376010  34.3165040  62.7023120  58.1569650
  19.6357680  62.9987560  64.2903770  20.0030720  62.9114960  65.1699790
  19.0668500  62.2354110  64.1910630  34.4361540  61.4671940  67.3034240
  34.2047630  61.2384690  66.4032190  34.6966090  62.3871490  67.2579130
  19.1873680  59.9096650  68.1962190  18.2929730  59.8763410  68.5355900
  19.7271230  60.1083440  68.9613440  32.8749610  56.6928370  70.0813940
  33.7519790  56.7011770  70.4647940  32.8870450  55.9559210  69.4706290
  17.8119830  59.8233920  55.6925760  16.9083910  60.0864120  55.5177420
  18.2960450  60.0945090  54.9125720  34.3212880  60.5457910  60.9701960
  34.8450360  60.0520560  60.3392130  34.9072300  60.6808270  61.7149530
  34.5002600  60.6297780  64.4921510  33.5505310  60.5961320  64.6066500
  34.6815610  61.5397890  64.2571280  20.3547040  58.8799460  53.6020140
  21.0638740  58.4582680  53.1167420  19.6386980  58.9474690  52.9703490
  20.0021200  54.9338790  52.6422790  20.7249330  55.4747730  52.9604010
  20.2745720  54.6602210  51.7664330  33.8112850  59.8031260  56.9094370
  34.3071970  59.5702130  57.6943250  33.6128920  58.9643100  56.4932010
  19.6913390  54.1844980  62.5445410  20.3389580  53.6342360  62.1040570
  20.1115230  54.4388130  63.3661220  35.2400010  58.4392210  59.4432050
  35.1299290  58.2848250  60.3814320  36.0007600  57.9113150  59.2007460
  33.5865730  54.3786340  65.9015050  34.2237950  54.9920480  66.2674240
  33.7340620  54.4147000  64.9564280  36.1290280  56.2700130  52.6838190
  37.0539590  56.1381310  52.4756480  36.1066070  56.3492950  53.6374640
  36.2028770  57.0410790  55.3094900  35.4080270  56.9755910  55.8387810
  36.4072050  57.9761430  55.2980250  19.4445390  54.3400650  65.2870730
  19.0960210  54.7964470  66.0528910  19.1133090  53.4457780  65.3693160
  26.9570210  55.5312530  68.8090150  26.8959100  56.1234360  69.5585560
  27.8970590  55.4238490  68.6640410  29.5944770  55.1882590  68.4482440
  30.2085180  55.5061880  67.7863520  30.1394330  54.7031180  69.0678300
  20.1166030  53.8676850  68.5621500  20.6649020  53.6864900  67.7987610
  20.1821340  53.0770960  69.0977810  30.3352810  53.7514730  64.7751730
  29.4612650  54.0849840  64.5724660  30.2263560  53.2787910  65.6003600
  31.2424790  55.9585600  66.1593450  30.9138150  55.1437360  65.7795180
  32.1907090  55.9155410  66.0359140  28.0827630  54.6684570  63.7144640
  27.2999420  55.1430070  63.9941400  27.7890560  53.7639400  63.6057820
  32.6348700  55.3707670  61.7593730  33.0756790  55.3152770  60.9115330
  32.3656290  56.2865680  61.8303910  19.4268040  54.9732050  56.2358360
  20.1847400  55.0860930  55.6622390  18.9645210  55.8101250  56.1901790
  25.9681850  57.0871320  59.2260670  25.1556360  56.7128210  58.8856550
  26.4723490  56.3316400  59.5281860  30.4706830  53.7513770  60.4643740
  31.0736200  54.3233980  60.9392260  29.7299820  54.3153210  60.2417640
  21.7993190  55.4996100  54.7760330  22.3285950  54.7125900  54.6468280
  22.4321510  56.1787290  55.0095860  24.1186590  54.5155220  70.2658210
  23.8370860  55.0188820  69.5019030  24.5006290  53.7176970  69.9000340
  30.7202050  53.9308800  70.8438680  30.6067500  54.2503410  71.7390200
  31.5371790  54.3321310  70.5475960  29.6260200  61.9501270  41.2073420
  29.5454250  61.0355880  40.9365130  29.2124620  62.4468340  40.5013130
  27.7578240  63.7280290  43.0882690  26.9820340  63.2480730  43.3781260
  28.4091170  63.0485940  42.9138850  21.7744070  64.0400100  43.9658450
  20.9428950  63.7848810  44.3654960  22.3825050  64.1110870  44.7016370
  20.1836020  59.0001990  37.7500840  19.2952720  59.3417960  37.6480720
  20.4677210  58.8002310  36.8581670  18.1469030  61.6007640  43.6340540
  18.7185140  60.8329840  43.6344180  18.1470570  61.8996400  42.7247150
  27.1987230  66.4037480  43.0952850  27.1295510  65.4627420  42.9341980
  27.9607090  66.4938890  43.6675420  19.3893900  57.0092000  45.4209470
  19.2096740  56.1117750  45.7012230  18.9873980  57.5563870  46.0956420
  28.2292400  59.2107860  43.3221780  28.6057220  58.3379740  43.2095450
  28.1311910  59.5466560  42.4312220  22.3597410  57.5833490  38.7839220
  22.4664160  58.4837220  39.0907980  21.4489770  57.5351460  38.4933870
  32.0116520  56.7058300  40.2550120  32.8326140  56.2154870  40.2975600
  32.0450600  57.2955960  41.0081960  20.0080570  59.5052500  44.0291810
  20.6890680  59.7690870  44.6479210  19.6928620  58.6653370  44.3629820
  24.2005140  60.5519860  43.1164400  24.7083360  61.0500830  43.7569420
  24.7318380  59.7755060  42.9403760  22.4841240  55.1918420  47.3827820
  22.4859680  55.7090810  46.5773720  21.6545550  54.7148600  47.3597750
  28.8712330  65.3037730  38.8817720  28.2529600  65.7687180  38.3180440
  29.3835580  65.9965210  39.2987230  23.7344090  64.8313600  45.5601320
  23.4013470  65.4582520  46.2022390  23.9110770  65.3575480  44.7802990
  32.2478000  58.6458680  43.0277660  31.5433570  58.9343570  43.6080770
  32.6090160  59.4558790  42.6677220  22.1656570  56.9028380  45.3898270
  22.5073380  57.7470430  45.0952140  21.2272380  57.0512120  45.5063610
  22.9463190  66.7994400  47.3750500  23.5637190  67.4745480  47.0934950
  22.0856310  67.2082380  47.2838000  18.2395530  65.9894260  36.2557350
  17.8623510  66.4781360  35.5242250  18.4968600  66.6619540  36.8863880
  35.3164920  58.0913470  43.4186870  34.3689830  58.1252450  43.5502300
  35.6414910  58.9052420  43.8036230  25.8484460  54.3910650  41.7142860
  26.1559440  53.8357540  40.9978360  24.9185160  54.5255110  41.5315850
  32.6944940  66.8294160  39.0940490  32.5841270  65.8868490  39.2189910
  32.6913190  67.1909800  39.9803250  30.7984960  65.0107780  45.3332930
  31.2153750  64.7967890  44.4986390  31.5224780  65.2680570  45.9041550
  28.2365220  62.4559480  38.4502980  27.3094500  62.3896860  38.6791450
  28.3890040  63.3939610  38.3358220  28.2234300  58.7276480  35.4470140
  27.2837970  58.8890440  35.5322600  28.5417560  59.4462160  34.9006130
  34.7447060  63.4095000  45.4249170  33.9165690  63.4788090  44.9499300
  35.3397540  63.9949310  44.9565000  32.2662510  64.0179780  38.9538230
  31.6474930  63.6799330  38.3064530  32.2486960  63.3739540  39.6617420
  31.7089070  60.1964320  46.3704040  31.2960250  61.0218030  46.6244030
  30.9765020  59.6109360  46.1780400  23.8421860  62.9824220  41.2322710
  23.4378860  62.2701470  40.7368610  23.9284980  62.6377460  42.1210750
  24.3103560  66.6691780  43.3961920  24.0131850  66.0637250  42.7169700
  25.2603380  66.7069090  43.2851280  22.5550480  59.7567430  45.0121750
  23.1065070  59.8662770  44.2375000  23.0693990  60.1305030  45.7276980
  23.4021990  66.4073470  50.0469720  22.5050520  66.6313440  50.2943120
  23.4274860  66.5308410  49.0981120  30.4427210  63.2566590  35.9610980
  30.8820490  62.4189020  35.8148800  31.1555630  63.8895990  36.0475120
  22.2293210  63.2786790  48.6227090  22.0900980  64.1509590  48.9914490
  21.3474570  62.9359600  48.4775030  34.0244350  54.5109400  34.2752020
  33.7117010  54.6036230  35.1751090  34.7856820  55.0890430  34.2249450
  20.5426490  61.8769200  38.7329360  20.4224090  62.6031290  38.1210630
  20.2327380  61.1072110  38.2557270  18.1811860  65.0484340  44.5398000
  18.2592280  65.1833110  43.5953720  18.7953540  64.3400230  44.7326120
  19.4259490  66.7484530  40.9504180  19.0187570  66.8899120  40.0957780
  20.3172500  66.4644690  40.7475390  35.3821630  67.1948440  49.2876420
  35.5084690  66.9560320  48.3693600  35.4243010  66.3632980  49.7598500
  35.2345640  59.2480900  50.2526160  34.6189910  59.7560570  49.7241620
  34.9142060  58.3479230  50.1952100  18.2371380  66.0898510  47.0792460
  18.4002420  65.6203870  46.2611830  18.7023830  65.5822070  47.7441300
  23.0090150  55.2204270  42.1153030  22.5658300  56.0013810  41.7837550
  23.5675140  55.5434160  42.8223970  27.2959960  58.0872790  47.7188350
  26.8339330  58.2955810  48.5308290  26.8938070  57.2732140  47.4159020
  32.2964470  59.3081740  48.8485010  31.4458060  59.0087490  49.1694080
  32.1366260  59.5523750  47.9368830  29.3914180  60.8083490  50.9483800
  29.7167590  59.9747240  50.6086030  30.1794510  61.3312010  51.0962130
  26.1248970  54.8414970  36.9958860  25.5003150  54.8374840  37.7212170
  26.0379090  53.9745930  36.5994830  25.0466050  55.7651600  43.9742630
  25.3438380  56.6714430  43.8934650  25.5951610  55.2770380  43.3602200
  22.8004370  60.3437840  39.8434280  22.5745290  60.1275010  40.7480900
  22.0196900  60.7766300  39.4980250  30.0302130  60.3501210  38.4424930
  29.4311020  61.0737010  38.2588550  30.5781740  60.2877990  37.6601380
  25.2403580  61.2423420  50.5094550  25.1447180  60.3018150  50.3594950
  26.0835560  61.4638490  50.1142620  28.6367000  58.9864750  40.4728210
  29.0296570  59.3036950  39.6596900  28.9983850  58.1076630  40.5872730
  20.3714120  57.6537090  48.6628330  19.9777510  58.5012300  48.8701110
  19.6832520  57.0163460  48.8536970  26.9459170  57.7372060  51.7325070
  26.2557490  57.5444260  52.3671160  27.6891470  58.0206700  52.2649370
  17.6731170  55.5765550  42.6958410  17.3844220  56.1468410  43.4083390
  18.4176930  55.0970000  43.0589640  17.8601400  59.5185670  33.9061130
  17.7776070  60.4616430  34.0476120  17.5084460  59.3760580  33.0273480
  29.2222140  61.5770500  44.5678990  28.4903260  62.0857310  44.9169090
  28.8246480  60.7600480  44.2667770  25.6599530  58.2524700  42.9731480
  25.6635590  57.8114650  42.1236020  26.5550650  58.5742030  43.0803300
  21.5101910  58.1351190  41.9325690  21.1701960  58.6126420  42.6892740
  20.7479230  57.6816310  41.5726790  25.7219680  59.2536780  35.9638240
  25.8432500  59.2123260  36.9124060  25.3368190  60.1160930  35.8084970
  29.6848050  57.0304180  43.9801930  29.7020790  57.4812830  44.8243780
  29.4363630  56.1309820  44.1935370  24.7341180  61.5637920  35.3621540
  24.1658080  61.1156170  34.7357450  25.4430180  61.9230700  34.8286690
  19.8110360  65.4649940  49.2388270  19.4265150  64.8243610  49.8371230
  20.1222550  66.1686060  49.8083000  25.9607500  62.3126480  44.7196890
  26.3277630  61.8385050  45.4658230  25.7712560  63.1868050  45.0605230
  18.8247990  57.0570170  40.8490360  18.5394910  56.6925840  41.6868980
  18.7626850  56.3250630  40.2353500  23.7506870  61.3535120  47.0381100
  23.4463940  62.2327100  47.2631460  24.7053330  61.4134910  47.0738540
  22.2788660  65.5596110  37.6347950  21.5050920  65.0193730  37.4746670
  23.0083290  65.0402720  37.2965710  33.0376640  64.5561470  43.4274340
  33.7575760  65.0516760  43.0370450  32.8358460  63.8779360  42.7828210
  28.4986580  55.9499430  37.5703730  27.6851190  55.4512600  37.4949040
  28.3048530  56.7897680  37.1540080  28.4195440  64.6270530  49.3143340
  28.3532750  63.7066200  49.0600930  27.7900580  64.7245970  50.0287980
  31.2134970  60.3219080  35.8665890  32.1014590  60.6336310  35.6917230
  31.1840060  59.4491330  35.4746470  22.3226060  65.2276490  41.2726760
  22.8404730  64.4244750  41.2183650  21.8710080  65.1655630  42.1143590
  27.2095560  66.4942770  36.5454060  27.5511260  67.2385000  36.0497380
  26.3808270  66.8073890  36.9078890  19.8070600  62.1937860  48.1852460
  19.4485540  62.8591710  48.7725800  19.5125160  61.3621410  48.5565080
  23.0083720  62.6522100  51.0692010  22.7083860  62.7979280  50.1719830
  23.7794960  62.0927390  50.9765400  28.3512170  67.4491100  49.0647140
  28.3656710  66.5172060  48.8466050  27.6437270  67.5350860  49.7036910
  33.4849240  61.6330920  35.3345750  33.4012960  62.0645140  34.4842190
  34.2043430  62.0929270  35.7672570  34.5623380  64.0898440  48.4115720
  33.8371570  64.6827220  48.2145110  35.0898840  64.0821980  47.6129090
  30.0922970  65.8158610  41.9099570  30.4446790  65.2186740  41.2500940
  29.2085300  65.4902840  42.0807820  26.1786250  66.5756300  39.3169980
  26.8657380  67.1225510  39.6977570  25.3918670  67.1197030  39.3519590
  18.3178650  62.1929120  34.8087060  19.1873500  62.4753920  35.0922980
  17.8268970  63.0064990  34.6935870  25.4813460  63.5802330  38.9295340
  25.9376240  64.3907580  39.1555530  25.1301670  63.2625470  39.7613830
  21.3825240  53.9239980  39.4017860  21.2539870  53.9157880  40.3502780
  20.5587260  54.2623070  39.0508870  32.9033870  67.3789640  34.6004230
  32.6771450  66.6620080  35.1928870  32.5130070  67.1302080  33.7625980
  18.3819170  55.6831100  48.8624560  17.6677690  55.8828020  49.4677170
  18.8014210  54.9070670  49.2339360  32.4850120  65.2961580  36.2618390
  32.1971820  65.7574270  37.0496270  33.2802290  64.8359350  36.5302610
  20.3025160  64.0102590  36.9369120  19.6953110  64.7501490  36.9464420
  20.7774510  64.1001950  36.1107320  29.8757950  58.1753410  46.6126010
  30.2438770  57.3548620  46.9405580  29.0156150  58.2355300  47.0281660
  33.2419980  57.1310350  37.4213570  32.6133140  57.2356020  36.7071800
  32.7471900  57.3507130  38.2107450  25.2104010  59.4096300  38.8371450
  24.5020160  59.8782640  39.2785060  25.4948490  58.7518310  39.4716640
  26.8359940  60.8293000  46.8363980  27.3345190  61.3038820  47.5015830
  26.9782890  59.9056520  47.0434010  29.2419440  56.1346960  40.2767240
  29.1187220  56.1533090  39.3276750  30.1904000  56.1825900  40.3965640
  23.4139030  57.7181380  36.2122160  24.2629560  58.1551530  36.1462350
  23.0470300  58.0301640  37.0394220  32.3348810  62.2894140  41.1253730
  31.3938950  62.3044370  41.3001420  32.6492880  61.5030100  41.5714030
  22.3130450  63.9713740  34.6857690  23.0793720  63.8595100  35.2483120
  22.3905140  63.2751710  34.0334460  21.0077210  61.4038810  35.3690580
  21.0880800  60.4566320  35.4807980  21.8996960  61.7345690  35.4751240
  29.6514830  66.8460140  51.6086110  29.0452990  66.8691740  50.8681860
  29.3468940  66.1143180  52.1453360  18.5348010  63.2253730  50.6046750
  19.0387030  62.6461010  51.1762980  17.7955430  63.5093960  51.1423120
  25.4371630  65.9467920  34.1593040  25.3322270  65.3320270  34.8854420
  25.2695850  65.4233810  33.3756050  25.5885950  64.6324720  50.1382270
  24.8231620  65.2009720  50.0536940  25.7701910  64.3400930  49.2450500
  28.6774360  65.0087950  34.7635030  28.1284460  65.4557250  35.4077770
  29.2993620  64.5037200  35.2872700  32.7309300  66.3630050  50.6957290
  33.4718770  66.7005810  50.1924750  31.9681980  66.5322110  50.1427060
  20.5671090  61.3683320  51.4996820  20.6076430  61.0697190  52.4082050
  21.4216590  61.7690930  51.3404340  24.3449480  63.9678870  36.6600330
  24.7665900  63.8018740  37.5031720  24.4700320  63.1579100  36.1655470
  22.5076900  59.9475420  49.4671310  21.9773360  59.4566370  48.8394650
  23.1764970  60.3759620  48.9329240  26.8577120  62.9916480  33.9077430
  27.3782780  62.2765500  33.5418580  27.5045520  63.6302350  34.2077940
  31.4054960  64.4144880  49.2312500  31.8195980  64.5689960  50.0802920
  30.4705960  64.5400100  49.3938280  31.8777130  61.7541040  51.2351650
  32.4597900  60.9993360  51.1472130  32.0538900  62.2848480  50.4583130
  22.9949200  56.9137790  49.5468600  22.9006070  56.2958540  48.8219470
  22.4146590  57.6404080  49.3198510  25.7610640  55.4711030  46.5795990
  25.3127940  55.4935290  45.7341540  25.1275840  55.0730050  47.1766290
  26.1670190  64.3665360  47.2008430  26.5858300  65.2098090  47.0284670
  25.2478820  64.5037400  46.9715210  28.5034090  62.0981540  48.5846270
  28.6230300  61.5022680  49.3241110  29.3628090  62.1351230  48.1647570
  30.8421990  62.6518730  47.1608780  30.3157210  63.1761350  46.5573920
  31.1853330  63.2846120  47.7918510  23.2408380  60.0412100  33.6058490
  23.0397440  59.1779460  33.9671830  23.0700430  59.9545460  32.6680090
  25.2702860  58.6402890  49.8422090  25.8602550  58.3318740  50.5299910
  24.4523100  58.1682640  49.9981990  30.0896290  58.2568700  50.0755110
  29.4011810  57.5950240  50.0105100  30.8102310  57.8106970  50.5203570
  30.7196690  54.8520330  36.1345370  30.9998980  54.0088230  36.4904790
  29.9462420  55.0843440  36.6484120  22.0391180  57.1412720  33.5936370
  22.3417080  57.1480150  32.6855520  22.7785770  56.7910580  34.0904030
  25.2576110  56.0847340  34.5792570  24.9098110  55.4071330  33.9995020
  25.4588880  55.6236850  35.3935960  21.0621310  66.4455140  34.4266170
  21.4996180  66.9884810  35.0823750  21.5469040  65.6202090  34.4362510
  22.8729030  67.5653180  39.5388400  22.5724570  67.4418150  40.4392310
  22.7666520  66.7061770  39.1304130  35.0977410  64.0897060  36.7449280
  35.8596320  64.6593710  36.8508970  35.1131780  63.5224260  37.5157590
  18.5981750  62.6134990  40.9756940  17.9430590  62.3446630  40.3316640
  19.4359700  62.5039470  40.5258920  36.1037380  64.9447160  41.5891210
  36.4746210  64.1614480  41.1827180  36.7439310  65.6336260  41.4108510
  33.0871140  66.3283740  47.0021530  32.2730980  66.7580900  47.2647320
  33.4945340  66.9402150  46.3890580  35.1496580  64.3831430  33.9021800
  35.4245420  65.2910310  33.7741020  34.9607320  64.3193960  34.8383790
  31.5472190  57.4076280  35.1975430  31.9657070  57.2207260  34.3572090
  31.2408250  56.5555330  35.5078360  35.0461920  62.3200420  38.8951230
  34.6705520  61.5528350  38.4632520  34.3165040  62.7023120  39.3826160
  19.6357680  62.9987560  45.5160280  20.0030720  62.9114960  46.3956300
  19.0668500  62.2354110  45.4167140  34.4361540  61.4671940  48.5290750
  34.2047630  61.2384690  47.6288700  34.6966090  62.3871490  48.4835640
  19.1873680  59.9096650  49.4218700  18.2929730  59.8763410  49.7612410
  19.7271230  60.1083440  50.1869950  32.8749610  56.6928370  51.3070450
  33.7519790  56.7011770  51.6904450  32.8870450  55.9559210  50.6962800
  17.8119830  59.8233920  36.9182270  16.9083910  60.0864120  36.7433930
  18.2960450  60.0945090  36.1382230  34.3212880  60.5457910  42.1958470
  34.8450360  60.0520560  41.5648640  34.9072300  60.6808270  42.9406040
  34.5002600  60.6297780  45.7178020  33.5505310  60.5961320  45.8323010
  34.6815610  61.5397890  45.4827790  20.3547040  58.8799460  34.8276650
  21.0638740  58.4582680  34.3423930  19.6386980  58.9474690  34.1960000
  20.0021200  54.9338790  33.8679300  20.7249330  55.4747730  34.1860520
  20.2745720  54.6602210  32.9920840  33.8112850  59.8031260  38.1350880
  34.3071970  59.5702130  38.9199760  33.6128920  58.9643100  37.7188520
  19.6913390  54.1844980  43.7701920  20.3389580  53.6342360  43.3297080
  20.1115230  54.4388130  44.5917730  35.2400010  58.4392210  40.6688560
  35.1299290  58.2848250  41.6070830  36.0007600  57.9113150  40.4263970
  36.1290280  56.2700130  33.9094700  37.0539590  56.1381310  33.7012990
  36.1066070  56.3492950  34.8631150  36.2028770  57.0410790  36.5351410
  35.4080270  56.9755910  37.0644320  36.4072050  57.9761430  36.5236760
  19.4445390  54.3400650  46.5127240  19.0960210  54.7964470  47.2785420
  19.1133090  53.4457780  46.5949670  26.9570210  55.5312530  50.0346660
  26.8959100  56.1234360  50.7842070  27.8970590  55.4238490  49.8896920
  20.1166030  53.8676850  49.7878010  20.6649020  53.6864900  49.0244120
  20.1821340  53.0770960  50.3234320  30.3352810  53.7514730  46.0008240
  29.4612650  54.0849840  45.7981170  30.2263560  53.2787910  46.8260110
  28.0827630  54.6684570  44.9401150  27.2999420  55.1430070  45.2197910
  27.7890560  53.7639400  44.8314330  32.6348700  55.3707670  42.9850240
  33.0756790  55.3152770  42.1371840  32.3656290  56.2865680  43.0560420
  19.4268040  54.9732050  37.4614870  20.1847400  55.0860930  36.8878900
  18.9645210  55.8101250  37.4158300  25.9681850  57.0871320  40.4517180
  25.1556360  56.7128210  40.1113060  26.4723490  56.3316400  40.7538370
  33.6141430  54.1535330  36.9640530  33.8092060  55.0518780  37.2307960
  32.8271300  53.9222410  37.4573480  21.7993190  55.4996100  36.0016840
  22.3285950  54.7125900  35.8724790  22.4321510  56.1787290  36.2352370
  23.9931030  55.2371240  39.0562230  23.3633770  54.5358550  39.2232360
  23.4536170  55.9975370  38.8395390  24.1186590  54.5155220  51.4914720
  23.8370860  55.0188820  50.7275540  24.5006290  53.7176970  51.1256850
  29.6260200  61.9501270  22.4329930  29.5454250  61.0355880  22.1621640
  29.2124620  62.4468340  21.7269640  27.7578240  63.7280290  24.3139200
  26.9820340  63.2480730  24.6037770  28.4091170  63.0485940  24.1395360
  21.7744070  64.0400100  25.1914960  20.9428950  63.7848810  25.5911470
  22.3825050  64.1110870  25.9272880  20.1836020  59.0001990  18.9757350
  19.2952720  59.3417960  18.8737230  20.4677210  58.8002310  18.0838180
  18.1469030  61.6007640  24.8597050  18.7185140  60.8329840  24.8600690
  18.1470570  61.8996400  23.9503660  27.1987230  66.4037480  24.3209360
  27.1295510  65.4627420  24.1598490  27.9607090  66.4938890  24.8931930
  19.3893900  57.0092000  26.6465980  19.2096740  56.1117750  26.9268740
  18.9873980  57.5563870  27.3212930  28.2292400  59.2107860  24.5478290
  28.6057220  58.3379740  24.4351960  28.1311910  59.5466560  23.6568730
  22.3597410  57.5833490  20.0095730  22.4664160  58.4837220  20.3164490
  21.4489770  57.5351460  19.7190380  32.0116520  56.7058300  21.4806630
  32.8326140  56.2154870  21.5232110  32.0450600  57.2955960  22.2338470
  20.0080570  59.5052500  25.2548320  20.6890680  59.7690870  25.8735720
  19.6928620  58.6653370  25.5886330  24.2005140  60.5519860  24.3420910
  24.7083360  61.0500830  24.9825930  24.7318380  59.7755060  24.1660270
  36.3016070  58.7225050  28.0450260  35.5968240  59.1106760  27.5265370
  36.5673990  59.4175340  28.6471190  22.4841240  55.1918420  28.6084330
  22.4859680  55.7090810  27.8030230  21.6545550  54.7148600  28.5854260
  28.8712330  65.3037730  20.1074230  28.2529600  65.7687180  19.5436950
  29.3835580  65.9965210  20.5243740  23.7344090  64.8313600  26.7857830
  23.4013470  65.4582520  27.4278900  23.9110770  65.3575480  26.0059500
  32.2478000  58.6458680  24.2534170  31.5433570  58.9343570  24.8337280
  32.6090160  59.4558790  23.8933730  22.1656570  56.9028380  26.6154780
  22.5073380  57.7470430  26.3208650  21.2272380  57.0512120  26.7320120
  22.9463190  66.7994400  28.6007010  23.5637190  67.4745480  28.3191460
  22.0856310  67.2082380  28.5094510  18.2395530  65.9894260  17.4813860
  17.8623510  66.4781360  16.7498760  18.4968600  66.6619540  18.1120390
  35.3164920  58.0913470  24.6443380  34.3689830  58.1252450  24.7758810
  35.6414910  58.9052420  25.0292740  25.8484460  54.3910650  22.9399370
  26.1559440  53.8357540  22.2234870  24.9185160  54.5255110  22.7572360
  32.6944940  66.8294160  20.3197000  32.5841270  65.8868490  20.4446420
  32.6913190  67.1909800  21.2059760  30.7984960  65.0107780  26.5589440
  31.2153750  64.7967890  25.7242900  31.5224780  65.2680570  27.1298060
  28.2365220  62.4559480  19.6759490  27.3094500  62.3896860  19.9047960
  28.3890040  63.3939610  19.5614730  28.2234300  58.7276480  16.6726650
  27.2837970  58.8890440  16.7579110  28.5417560  59.4462160  16.1262640
  34.7447060  63.4095000  26.6505680  33.9165690  63.4788090  26.1755810
  35.3397540  63.9949310  26.1821510  32.2662510  64.0179780  20.1794740
  31.6474930  63.6799330  19.5321040  32.2486960  63.3739540  20.8873930
  31.7089070  60.1964320  27.5960550  31.2960250  61.0218030  27.8500540
  30.9765020  59.6109360  27.4036910  23.8421860  62.9824220  22.4579220
  23.4378860  62.2701470  21.9625120  23.9284980  62.6377460  23.3467260
  24.3103560  66.6691780  24.6218430  24.0131850  66.0637250  23.9426210
  25.2603380  66.7069090  24.5107790  22.5550480  59.7567430  26.2378260
  23.1065070  59.8662770  25.4631510  23.0693990  60.1305030  26.9533490
  23.4021990  66.4073470  31.2726230  22.5050520  66.6313440  31.5199630
  23.4274860  66.5308410  30.3237630  30.4427210  63.2566590  17.1867490
  30.8820490  62.4189020  17.0405310  31.1555630  63.8895990  17.2731630
  22.2293210  63.2786790  29.8483600  22.0900980  64.1509590  30.2171000
  21.3474570  62.9359600  29.7031540  34.0244350  54.5109400  15.5008530
  33.7117010  54.6036230  16.4007600  34.7856820  55.0890430  15.4505960
  20.5426490  61.8769200  19.9585870  20.4224090  62.6031290  19.3467140
  20.2327380  61.1072110  19.4813780  18.1811860  65.0484340  25.7654510
  18.2592280  65.1833110  24.8210230  18.7953540  64.3400230  25.9582630
  19.4259490  66.7484530  22.1760690  19.0187570  66.8899120  21.3214290
  20.3172500  66.4644690  21.9731900  35.3821630  67.1948440  30.5132930
  35.5084690  66.9560320  29.5950110  35.4243010  66.3632980  30.9855010
  35.2345640  59.2480900  31.4782670  34.6189910  59.7560570  30.9498130
  34.9142060  58.3479230  31.4208610  18.2371380  66.0898510  28.3048970
  18.4002420  65.6203870  27.4868340  18.7023830  65.5822070  28.9697810
  23.0090150  55.2204270  23.3409540  22.5658300  56.0013810  23.0094060
  23.5675140  55.5434160  24.0480480  27.2959960  58.0872790  28.9444860
  26.8339330  58.2955810  29.7564800  26.8938070  57.2732140  28.6415530
  32.2964470  59.3081740  30.0741520  31.4458060  59.0087490  30.3950590
  32.1366260  59.5523750  29.1625340  29.3914180  60.8083490  32.1740310
  29.7167590  59.9747240  31.8342540  30.1794510  61.3312010  32.3218640
  26.1248970  54.8414970  18.2215370  25.5003150  54.8374840  18.9468680
  26.0379090  53.9745930  17.8251340  25.0466050  55.7651600  25.1999140
  25.3438380  56.6714430  25.1191160  25.5951610  55.2770380  24.5858710
  22.8004370  60.3437840  21.0690790  22.5745290  60.1275010  21.9737410
  22.0196900  60.7766300  20.7236760  30.0302130  60.3501210  19.6681440
  29.4311020  61.0737010  19.4845060  30.5781740  60.2877990  18.8857890
  25.2403580  61.2423420  31.7351060  25.1447180  60.3018150  31.5851460
  26.0835560  61.4638490  31.3399130  28.6367000  58.9864750  21.6984720
  29.0296570  59.3036950  20.8853410  28.9983850  58.1076630  21.8129240
  20.3714120  57.6537090  29.8884840  19.9777510  58.5012300  30.0957620
  19.6832520  57.0163460  30.0793480  26.9459170  57.7372060  32.9581580
  26.2557490  57.5444260  33.5927670  27.6891470  58.0206700  33.4905880
  17.6731170  55.5765550  23.9214920  17.3844220  56.1468410  24.6339900
  18.4176930  55.0970000  24.2846150  17.8601400  59.5185670  15.1317640
  17.7776070  60.4616430  15.2732630  17.5084460  59.3760580  14.2529990
  29.2222140  61.5770500  25.7935500  28.4903260  62.0857310  26.1425600
  28.8246480  60.7600480  25.4924280  25.6599530  58.2524700  24.1987990
  25.6635590  57.8114650  23.3492530  26.5550650  58.5742030  24.3059810
  21.5101910  58.1351190  23.1582200  21.1701960  58.6126420  23.9149250
  20.7479230  57.6816310  22.7983300  25.7219680  59.2536780  17.1894750
  25.8432500  59.2123260  18.1380570  25.3368190  60.1160930  17.0341480
  29.6848050  57.0304180  25.2058440  29.7020790  57.4812830  26.0500290
  29.4363630  56.1309820  25.4191880  24.7341180  61.5637920  16.5878050
  24.1658080  61.1156170  15.9613960  25.4430180  61.9230700  16.0543200
  33.1118800  54.4436360  31.0444820  33.4364570  53.7126020  31.5702800
  33.1475310  54.1250000  30.1425810  19.8110360  65.4649940  30.4644780
  19.4265150  64.8243610  31.0627740  20.1222550  66.1686060  31.0339510
  25.9607500  62.3126480  25.9453400  26.3277630  61.8385050  26.6914740
  25.7712560  63.1868050  26.2861740  18.8247990  57.0570170  22.0746870
  18.5394910  56.6925840  22.9125490  18.7626850  56.3250630  21.4610010
  23.7506870  61.3535120  28.2637610  23.4463940  62.2327100  28.4887970
  24.7053330  61.4134910  28.2995050  22.2788660  65.5596110  18.8604460
  21.5050920  65.0193730  18.7003180  23.0083290  65.0402720  18.5222220
  33.0376640  64.5561470  24.6530850  33.7575760  65.0516760  24.2626960
  32.8358460  63.8779360  24.0084720  28.4986580  55.9499430  18.7960240
  27.6851190  55.4512600  18.7205550  28.3048530  56.7897680  18.3796590
  28.4195440  64.6270530  30.5399850  28.3532750  63.7066200  30.2857440
  27.7900580  64.7245970  31.2544490  31.2134970  60.3219080  17.0922400
  32.1014590  60.6336310  16.9173740  31.1840060  59.4491330  16.7002980
  22.3226060  65.2276490  22.4983270  22.8404730  64.4244750  22.4440160
  21.8710080  65.1655630  23.3400100  27.2095560  66.4942770  17.7710570
  27.5511260  67.2385000  17.2753890  26.3808270  66.8073890  18.1335400
  19.8070600  62.1937860  29.4108970  19.4485540  62.8591710  29.9982310
  19.5125160  61.3621410  29.7821590  23.0083720  62.6522100  32.2948520
  22.7083860  62.7979280  31.3976340  23.7794960  62.0927390  32.2021910
  28.3512170  67.4491100  30.2903650  28.3656710  66.5172060  30.0722560
  27.6437270  67.5350860  30.9293420  33.4849240  61.6330920  16.5602260
  33.4012960  62.0645140  15.7098700  34.2043430  62.0929270  16.9929080
  34.5623380  64.0898440  29.6372230  33.8371570  64.6827220  29.4401620
  35.0898840  64.0821980  28.8385600  30.0922970  65.8158610  23.1356080
  30.4446790  65.2186740  22.4757450  29.2085300  65.4902840  23.3064330
  26.1786250  66.5756300  20.5426490  26.8657380  67.1225510  20.9234080
  25.3918670  67.1197030  20.5776100  18.3178650  62.1929120  16.0343570
  19.1873500  62.4753920  16.3179490  17.8268970  63.0064990  15.9192380
  25.4813460  63.5802330  20.1551850  25.9376240  64.3907580  20.3812040
  25.1301670  63.2625470  20.9870340  21.3825240  53.9239980  20.6274370
  21.2539870  53.9157880  21.5759290  20.5587260  54.2623070  20.2765380
  32.9033870  67.3789640  15.8260740  32.6771450  66.6620080  16.4185380
  32.5130070  67.1302080  14.9882490  18.3819170  55.6831100  30.0881070
  17.6677690  55.8828020  30.6933680  18.8014210  54.9070670  30.4595870
  32.4850120  65.2961580  17.4874900  32.1971820  65.7574270  18.2752780
  33.2802290  64.8359350  17.7559120  20.3025160  64.0102590  18.1625630
  19.6953110  64.7501490  18.1720930  20.7774510  64.1001950  17.3363830
  29.8757950  58.1753410  27.8382520  30.2438770  57.3548620  28.1662090
  29.0156150  58.2355300  28.2538170  33.2419980  57.1310350  18.6470080
  32.6133140  57.2356020  17.9328310  32.7471900  57.3507130  19.4363960
  25.2104010  59.4096300  20.0627960  24.5020160  59.8782640  20.5041570
  25.4948490  58.7518310  20.6973150  26.8359940  60.8293000  28.0620490
  27.3345190  61.3038820  28.7272340  26.9782890  59.9056520  28.2690520
  29.2419440  56.1346960  21.5023750  29.1187220  56.1533090  20.5533260
  30.1904000  56.1825900  21.6222150  23.4139030  57.7181380  17.4378670
  24.2629560  58.1551530  17.3718860  23.0470300  58.0301640  18.2650730
  34.0426800  57.0460960  28.9048880  33.5400400  57.7866360  29.2442690
  34.8583460  57.4344960  28.5885670  32.3348810  62.2894140  22.3510240
  31.3938950  62.3044370  22.5257930  32.6492880  61.5030100  22.7970540
  22.3130450  63.9713740  15.9114200  23.0793720  63.8595100  16.4739630
  22.3905140  63.2751710  15.2590970  21.0077210  61.4038810  16.5947090
  21.0880800  60.4566320  16.7064490  21.8996960  61.7345690  16.7007750
  29.6514830  66.8460140  32.8342620  29.0452990  66.8691740  32.0938370
  29.3468940  66.1143180  33.3709870  18.5348010  63.2253730  31.8303260
  19.0387030  62.6461010  32.4019490  17.7955430  63.5093960  32.3679630
  25.4371630  65.9467920  15.3849550  25.3322270  65.3320270  16.1110930
  25.2695850  65.4233810  14.6012560  25.5885950  64.6324720  31.3638780
  24.8231620  65.2009720  31.2793450  25.7701910  64.3400930  30.4707010
  28.6774360  65.0087950  15.9891540  28.1284460  65.4557250  16.6334280
  29.2993620  64.5037200  16.5129210  32.7309300  66.3630050  31.9213800
  33.4718770  66.7005810  31.4181260  31.9681980  66.5322110  31.3683570
  20.5671090  61.3683320  32.7253330  20.6076430  61.0697190  33.6338560
  21.4216590  61.7690930  32.5660850  24.3449480  63.9678870  17.8856840
  24.7665900  63.8018740  18.7288230  24.4700320  63.1579100  17.3911980
  22.5076900  59.9475420  30.6927820  21.9773360  59.4566370  30.0651160
  23.1764970  60.3759620  30.1585750  26.8577120  62.9916480  15.1333940
  27.3782780  62.2765500  14.7675090  27.5045520  63.6302350  15.4334450
  31.4054960  64.4144880  30.4569010  31.8195980  64.5689960  31.3059430
  30.4705960  64.5400100  30.6194790  31.8777130  61.7541040  32.4608160
  32.4597900  60.9993360  32.3728640  32.0538900  62.2848480  31.6839640
  22.9949200  56.9137790  30.7725110  22.9006070  56.2958540  30.0475980
  22.4146590  57.6404080  30.5455020  25.7610640  55.4711030  27.8052500
  25.3127940  55.4935290  26.9598050  25.1275840  55.0730050  28.4022800
  26.1670190  64.3665360  28.4264940  26.5858300  65.2098090  28.2541180
  25.2478820  64.5037400  28.1971720  28.5034090  62.0981540  29.8102780
  28.6230300  61.5022680  30.5497620  29.3628090  62.1351230  29.3904080
  30.8421990  62.6518730  28.3865290  30.3157210  63.1761350  27.7830430
  31.1853330  63.2846120  29.0175020  23.2408380  60.0412100  14.8315000
  23.0397440  59.1779460  15.1928340  23.0700430  59.9545460  13.8936600
  25.2702860  58.6402890  31.0678600  25.8602550  58.3318740  31.7556420
  24.4523100  58.1682640  31.2238500  30.0896290  58.2568700  31.3011620
  29.4011810  57.5950240  31.2361610  30.8102310  57.8106970  31.7460080
  30.7196690  54.8520330  17.3601880  30.9998980  54.0088230  17.7161300
  29.9462420  55.0843440  17.8740630  22.0391180  57.1412720  14.8192880
  22.3417080  57.1480150  13.9112030  22.7785770  56.7910580  15.3160540
  25.2576110  56.0847340  15.8049080  24.9098110  55.4071330  15.2251530
  25.4588880  55.6236850  16.6192470  21.0621310  66.4455140  15.6522680
  21.4996180  66.9884810  16.3080260  21.5469040  65.6202090  15.6619020
  22.8729030  67.5653180  20.7644910  22.5724570  67.4418150  21.6648820
  22.7666520  66.7061770  20.3560640  35.0977410  64.0897060  17.9705790
  35.8596320  64.6593710  18.0765480  35.1131780  63.5224260  18.7414100
  18.5981750  62.6134990  22.2013450  17.9430590  62.3446630  21.5573150
  19.4359700  62.5039470  21.7515430  36.1037380  64.9447160  22.8147720
  36.4746210  64.1614480  22.4083690  36.7439310  65.6336260  22.6365020
  33.0871140  66.3283740  28.2278040  32.2730980  66.7580900  28.4903830
  33.4945340  66.9402150  27.6147090  35.1496580  64.3831430  15.1278310
  35.4245420  65.2910310  14.9997530  34.9607320  64.3193960  16.0640300
  31.5472190  57.4076280  16.4231940  31.9657070  57.2207260  15.5828600
  31.2408250  56.5555330  16.7334870  35.0461920  62.3200420  20.1207740
  34.6705520  61.5528350  19.6889030  34.3165040  62.7023120  20.6082670
  19.6357680  62.9987560  26.7416790  20.0030720  62.9114960  27.6212810
  19.0668500  62.2354110  26.6423650  34.4361540  61.4671940  29.7547260
  34.2047630  61.2384690  28.8545210  34.6966090  62.3871490  29.7092150
  19.1873680  59.9096650  30.6475210  18.2929730  59.8763410  30.9868920
  19.7271230  60.1083440  31.4126460  32.8749610  56.6928370  32.5326960
  33.7519790  56.7011770  32.9160960  32.8870450  55.9559210  31.9219310
  17.8119830  59.8233920  18.1438780  16.9083910  60.0864120  17.9690440
  18.2960450  60.0945090  17.3638740  34.3212880  60.5457910  23.4214980
  34.8450360  60.0520560  22.7905150  34.9072300  60.6808270  24.1662550
  34.5002600  60.6297780  26.9434530  33.5505310  60.5961320  27.0579520
  34.6815610  61.5397890  26.7084300  20.3547040  58.8799460  16.0533160
  21.0638740  58.4582680  15.5680440  19.6386980  58.9474690  15.4216510
  20.0021200  54.9338790  15.0935810  20.7249330  55.4747730  15.4117030
  20.2745720  54.6602210  14.2177350  33.8112850  59.8031260  19.3607390
  34.3071970  59.5702130  20.1456270  33.6128920  58.9643100  18.9445030
  19.6913390  54.1844980  24.9958430  20.3389580  53.6342360  24.5553590
  20.1115230  54.4388130  25.8174240  35.2400010  58.4392210  21.8945070
  35.1299290  58.2848250  22.8327340  36.0007600  57.9113150  21.6520480
  33.5865730  54.3786340  28.3528070  34.2237950  54.9920480  28.7187260
  33.7340620  54.4147000  27.4077300  36.1290280  56.2700130  15.1351210
  37.0539590  56.1381310  14.9269500  36.1066070  56.3492950  16.0887660
  36.2028770  57.0410790  17.7607920  35.4080270  56.9755910  18.2900830
  36.4072050  57.9761430  17.7493270  19.4445390  54.3400650  27.7383750
  19.0960210  54.7964470  28.5041930  19.1133090  53.4457780  27.8206180
  26.9570210  55.5312530  31.2603170  26.8959100  56.1234360  32.0098580
  27.8970590  55.4238490  31.1153430  29.5944770  55.1882590  30.8995460
  30.2085180  55.5061880  30.2376540  30.1394330  54.7031180  31.5191320
  20.1166030  53.8676850  31.0134520  20.6649020  53.6864900  30.2500630
  20.1821340  53.0770960  31.5490830  30.3352810  53.7514730  27.2264750
  29.4612650  54.0849840  27.0237680  30.2263560  53.2787910  28.0516620
  31.2424790  55.9585600  28.6106470  30.9138150  55.1437360  28.2308200
  32.1907090  55.9155410  28.4872160  28.0827630  54.6684570  26.1657660
  27.2999420  55.1430070  26.4454420  27.7890560  53.7639400  26.0570840
  32.6348700  55.3707670  24.2106750  33.0756790  55.3152770  23.3628350
  32.3656290  56.2865680  24.2816930  34.4987270  55.0022910  22.2215570
  34.4375670  54.0584130  22.0746590  35.2779300  55.1103000  22.7669030
  19.4268040  54.9732050  18.6871380  20.1847400  55.0860930  18.1135410
  18.9645210  55.8101250  18.6414810  25.9681850  57.0871320  21.6773690
  25.1556360  56.7128210  21.3369570  26.4723490  56.3316400  21.9794880
  30.4706830  53.7513770  22.9156760  31.0736200  54.3233980  23.3905280
  29.7299820  54.3153210  22.6930660  33.6141430  54.1535330  18.1897040
  33.8092060  55.0518780  18.4564470  32.8271300  53.9222410  18.6829990
  21.7993190  55.4996100  17.2273350  22.3285950  54.7125900  17.0981300
  22.4321510  56.1787290  17.4608880  23.9931030  55.2371240  20.2818740
  23.3633770  54.5358550  20.4488870  23.4536170  55.9975370  20.0651900
  24.1186590  54.5155220  32.7171230  23.8370860  55.0188820  31.9532050
  24.5006290  53.7176970  32.3513360  30.7202050  53.9308800  33.2951700
  30.6067500  54.2503410  34.1903220  31.5371790  54.3321310  32.9988980
  29.6260200  61.9501270   3.6586440  29.5454250  61.0355880   3.3878150
  29.2124620  62.4468340   2.9526150  27.7578240  63.7280290   5.5395710
  26.9820340  63.2480730   5.8294280  28.4091170  63.0485940   5.3651870
  21.7744070  64.0400100   6.4171470  20.9428950  63.7848810   6.8167980
  22.3825050  64.1110870   7.1529390  18.1469030  61.6007640   6.0853560
  18.7185140  60.8329840   6.0857200  18.1470570  61.8996400   5.1760170
  27.1987230  66.4037480   5.5465870  27.1295510  65.4627420   5.3855000
  27.9607090  66.4938890   6.1188440  19.3893900  57.0092000   7.8722490
  19.2096740  56.1117750   8.1525250  18.9873980  57.5563870   8.5469440
  28.2292400  59.2107860   5.7734800  28.6057220  58.3379740   5.6608470
  28.1311910  59.5466560   4.8825240  32.0116520  56.7058300   2.7063140
  32.8326140  56.2154870   2.7488620  32.0450600  57.2955960   3.4594980
  20.0080570  59.5052500   6.4804830  20.6890680  59.7690870   7.0992230
  19.6928620  58.6653370   6.8142840  24.2005140  60.5519860   5.5677420
  24.7083360  61.0500830   6.2082440  24.7318380  59.7755060   5.3916780
  36.3016070  58.7225050   9.2706770  35.5968240  59.1106760   8.7521880
  36.5673990  59.4175340   9.8727700  22.4841240  55.1918420   9.8340840
  22.4859680  55.7090810   9.0286740  21.6545550  54.7148600   9.8110770
  23.7344090  64.8313600   8.0114340  23.4013470  65.4582520   8.6535410
  23.9110770  65.3575480   7.2316010  32.2478000  58.6458680   5.4790680
  31.5433570  58.9343570   6.0593790  32.6090160  59.4558790   5.1190240
  22.1656570  56.9028380   7.8411290  22.5073380  57.7470430   7.5465160
  21.2272380  57.0512120   7.9576630  22.9463190  66.7994400   9.8263520
  23.5637190  67.4745480   9.5447970  22.0856310  67.2082380   9.7351020
  35.3164920  58.0913470   5.8699890  34.3689830  58.1252450   6.0015320
  35.6414910  58.9052420   6.2549250  25.8484460  54.3910650   4.1655880
  26.1559440  53.8357540   3.4491380  24.9185160  54.5255110   3.9828870
  30.7984960  65.0107780   7.7845950  31.2153750  64.7967890   6.9499410
  31.5224780  65.2680570   8.3554570  34.7447060  63.4095000   7.8762190
  33.9165690  63.4788090   7.4012320  35.3397540  63.9949310   7.4078020
  31.7089070  60.1964320   8.8217060  31.2960250  61.0218030   9.0757050
  30.9765020  59.6109360   8.6293420  23.8421860  62.9824220   3.6835730
  23.4378860  62.2701470   3.1881630  23.9284980  62.6377460   4.5723770
  24.3103560  66.6691780   5.8474940  24.0131850  66.0637250   5.1682720
  25.2603380  66.7069090   5.7364300  22.5550480  59.7567430   7.4634770
  23.1065070  59.8662770   6.6888020  23.0693990  60.1305030   8.1790000
  23.4021990  66.4073470  12.4982740  22.5050520  66.6313440  12.7456140
  23.4274860  66.5308410  11.5494140  22.2293210  63.2786790  11.0740110
  22.0900980  64.1509590  11.4427510  21.3474570  62.9359600  10.9288050
  18.1811860  65.0484340   6.9911020  18.2592280  65.1833110   6.0466740
  18.7953540  64.3400230   7.1839140  19.4259490  66.7484530   3.4017200
  19.0187570  66.8899120   2.5470800  20.3172500  66.4644690   3.1988410
  35.3821630  67.1948440  11.7389440  35.5084690  66.9560320  10.8206620
  35.4243010  66.3632980  12.2111520  35.2345640  59.2480900  12.7039180
  34.6189910  59.7560570  12.1754640  34.9142060  58.3479230  12.6465120
  18.2371380  66.0898510   9.5305480  18.4002420  65.6203870   8.7124850
  18.7023830  65.5822070  10.1954320  23.0090150  55.2204270   4.5666050
  22.5658300  56.0013810   4.2350570  23.5675140  55.5434160   5.2736990
  27.2959960  58.0872790  10.1701370  26.8339330  58.2955810  10.9821310
  26.8938070  57.2732140   9.8672040  32.2964470  59.3081740  11.2998030
  31.4458060  59.0087490  11.6207100  32.1366260  59.5523750  10.3881850
  29.3914180  60.8083490  13.3996820  29.7167590  59.9747240  13.0599050
  30.1794510  61.3312010  13.5475150  25.0466050  55.7651600   6.4255650
  25.3438380  56.6714430   6.3447670  25.5951610  55.2770380   5.8115220
  22.8004370  60.3437840   2.2947300  22.5745290  60.1275010   3.1993920
  22.0196900  60.7766300   1.9493270  25.2403580  61.2423420  12.9607570
  25.1447180  60.3018150  12.8107970  26.0835560  61.4638490  12.5655640
  28.6367000  58.9864750   2.9241230  29.0296570  59.3036950   2.1109920
  28.9983850  58.1076630   3.0385750  20.3714120  57.6537090  11.1141350
  19.9777510  58.5012300  11.3214130  19.6832520  57.0163460  11.3049990
  26.9459170  57.7372060  14.1838090  26.2557490  57.5444260  14.8184180
  27.6891470  58.0206700  14.7162390  17.6731170  55.5765550   5.1471430
  17.3844220  56.1468410   5.8596410  18.4176930  55.0970000   5.5102660
  29.2222140  61.5770500   7.0192010  28.4903260  62.0857310   7.3682110
  28.8246480  60.7600480   6.7180790  25.6599530  58.2524700   5.4244500
  25.6635590  57.8114650   4.5749040  26.5550650  58.5742030   5.5316320
  21.5101910  58.1351190   4.3838710  21.1701960  58.6126420   5.1405760
  20.7479230  57.6816310   4.0239810  29.6848050  57.0304180   6.4314950
  29.7020790  57.4812830   7.2756800  29.4363630  56.1309820   6.6448390
  33.1118800  54.4436360  12.2701330  33.4364570  53.7126020  12.7959310
  33.1475310  54.1250000  11.3682320  19.8110360  65.4649940  11.6901290
  19.4265150  64.8243610  12.2884250  20.1222550  66.1686060  12.2596020
  25.9607500  62.3126480   7.1709910  26.3277630  61.8385050   7.9171250
  25.7712560  63.1868050   7.5118250  18.8247990  57.0570170   3.3003380
  18.5394910  56.6925840   4.1382000  18.7626850  56.3250630   2.6866520
  23.7506870  61.3535120   9.4894120  23.4463940  62.2327100   9.7144480
  24.7053330  61.4134910   9.5251560  33.0376640  64.5561470   5.8787360
  33.7575760  65.0516760   5.4883470  32.8358460  63.8779360   5.2341230
  28.4195440  64.6270530  11.7656360  28.3532750  63.7066200  11.5113950
  27.7900580  64.7245970  12.4801000  22.3226060  65.2276490   3.7239780
  22.8404730  64.4244750   3.6696670  21.8710080  65.1655630   4.5656610
  19.8070600  62.1937860  10.6365480  19.4485540  62.8591710  11.2238820
  19.5125160  61.3621410  11.0078100  23.0083720  62.6522100  13.5205030
  22.7083860  62.7979280  12.6232850  23.7794960  62.0927390  13.4278420
  28.3512170  67.4491100  11.5160160  28.3656710  66.5172060  11.2979070
  27.6437270  67.5350860  12.1549930  34.5623380  64.0898440  10.8628740
  33.8371570  64.6827220  10.6658130  35.0898840  64.0821980  10.0642110
  30.0922970  65.8158610   4.3612590  30.4446790  65.2186740   3.7013960
  29.2085300  65.4902840   4.5320840  26.1786250  66.5756300   1.7683000
  26.8657380  67.1225510   2.1490590  25.3918670  67.1197030   1.8032610
  18.3819170  55.6831100  11.3137580  17.6677690  55.8828020  11.9190190
  18.8014210  54.9070670  11.6852380  29.8757950  58.1753410   9.0639030
  30.2438770  57.3548620   9.3918600  29.0156150  58.2355300   9.4794680
  26.8359940  60.8293000   9.2877000  27.3345190  61.3038820   9.9528850
  26.9782890  59.9056520   9.4947030  29.2419440  56.1346960   2.7280260
  29.1187220  56.1533090   1.7789770  30.1904000  56.1825900   2.8478660
  34.0426800  57.0460960  10.1305390  33.5400400  57.7866360  10.4699200
  34.8583460  57.4344960   9.8142180  32.3348810  62.2894140   3.5766750
  31.3938950  62.3044370   3.7514440  32.6492880  61.5030100   4.0227050
  29.6514830  66.8460140  14.0599130  29.0452990  66.8691740  13.3194880
  29.3468940  66.1143180  14.5966380  18.5348010  63.2253730  13.0559770
  19.0387030  62.6461010  13.6276000  17.7955430  63.5093960  13.5936140
  25.5885950  64.6324720  12.5895290  24.8231620  65.2009720  12.5049960
  25.7701910  64.3400930  11.6963520  32.7309300  66.3630050  13.1470310
  33.4718770  66.7005810  12.6437770  31.9681980  66.5322110  12.5940080
  20.5671090  61.3683320  13.9509840  20.6076430  61.0697190  14.8595070
  21.4216590  61.7690930  13.7917360  22.5076900  59.9475420  11.9184330
  21.9773360  59.4566370  11.2907670  23.1764970  60.3759620  11.3842260
  31.4054960  64.4144880  11.6825520  31.8195980  64.5689960  12.5315940
  30.4705960  64.5400100  11.8451300  31.8777130  61.7541040  13.6864670
  32.4597900  60.9993360  13.5985150  32.0538900  62.2848480  12.9096150
  22.9949200  56.9137790  11.9981620  22.9006070  56.2958540  11.2732490
  22.4146590  57.6404080  11.7711530  25.7610640  55.4711030   9.0309010
  25.3127940  55.4935290   8.1854560  25.1275840  55.0730050   9.6279310
  26.1670190  64.3665360   9.6521450  26.5858300  65.2098090   9.4797690
  25.2478820  64.5037400   9.4228230  28.5034090  62.0981540  11.0359290
  28.6230300  61.5022680  11.7754130  29.3628090  62.1351230  10.6160590
  30.8421990  62.6518730   9.6121800  30.3157210  63.1761350   9.0086940
  31.1853330  63.2846120  10.2431530  25.2702860  58.6402890  12.2935110
  25.8602550  58.3318740  12.9812930  24.4523100  58.1682640  12.4495010
  30.0896290  58.2568700  12.5268130  29.4011810  57.5950240  12.4618120
  30.8102310  57.8106970  12.9716590  18.5981750  62.6134990   3.4269960
  17.9430590  62.3446630   2.7829660  19.4359700  62.5039470   2.9771940
  36.1037380  64.9447160   4.0404230  36.4746210  64.1614480   3.6340200
  36.7439310  65.6336260   3.8621530  33.0871140  66.3283740   9.4534550
  32.2730980  66.7580900   9.7160340  33.4945340  66.9402150   8.8403600
  19.6357680  62.9987560   7.9673300  20.0030720  62.9114960   8.8469320
  19.0668500  62.2354110   7.8680160  34.4361540  61.4671940  10.9803770
  34.2047630  61.2384690  10.0801720  34.6966090  62.3871490  10.9348660
  19.1873680  59.9096650  11.8731720  18.2929730  59.8763410  12.2125430
  19.7271230  60.1083440  12.6382970  32.8749610  56.6928370  13.7583470
  33.7519790  56.7011770  14.1417470  32.8870450  55.9559210  13.1475820
  34.3212880  60.5457910   4.6471490  34.8450360  60.0520560   4.0161660
  34.9072300  60.6808270   5.3919060  34.5002600  60.6297780   8.1691040
  33.5505310  60.5961320   8.2836030  34.6815610  61.5397890   7.9340810
  19.6913390  54.1844980   6.2214940  20.3389580  53.6342360   5.7810100
  20.1115230  54.4388130   7.0430750  35.2400010  58.4392210   3.1201580
  35.1299290  58.2848250   4.0583850  36.0007600  57.9113150   2.8776990
  33.5865730  54.3786340   9.5784580  34.2237950  54.9920480   9.9443770
  33.7340620  54.4147000   8.6333810  19.4445390  54.3400650   8.9640260
  19.0960210  54.7964470   9.7298440  19.1133090  53.4457780   9.0462690
  26.9570210  55.5312530  12.4859680  26.8959100  56.1234360  13.2355090
  27.8970590  55.4238490  12.3409940  29.5944770  55.1882590  12.1251970
  30.2085180  55.5061880  11.4633050  30.1394330  54.7031180  12.7447830
  20.1166030  53.8676850  12.2391030  20.6649020  53.6864900  11.4757140
  20.1821340  53.0770960  12.7747340  30.3352810  53.7514730   8.4521260
  29.4612650  54.0849840   8.2494190  30.2263560  53.2787910   9.2773130
  31.2424790  55.9585600   9.8362980  30.9138150  55.1437360   9.4564710
  32.1907090  55.9155410   9.7128670  28.0827630  54.6684570   7.3914170
  27.2999420  55.1430070   7.6710930  27.7890560  53.7639400   7.2827350
  32.6348700  55.3707670   5.4363260  33.0756790  55.3152770   4.5884860
  32.3656290  56.2865680   5.5073440  34.4987270  55.0022910   3.4472080
  34.4375670  54.0584130   3.3003100  35.2779300  55.1103000   3.9925540
  25.9681850  57.0871320   2.9030200  25.1556360  56.7128210   2.5626080
  26.4723490  56.3316400   3.2051390  30.4706830  53.7513770   4.1413270
  31.0736200  54.3233980   4.6161790  29.7299820  54.3153210   3.9187170
  24.1186590  54.5155220  13.9427740  23.8370860  55.0188820  13.1788560
  24.5006290  53.7176970  13.5769870  30.7202050  53.9308800  14.5208210
  30.6067500  54.2503410  15.4159730  31.5371790  54.3321310  14.2245490
  29.6260200  43.1757780  78.7560400  29.5454250  42.2612390  78.4852110
  29.2124620  43.6724850  78.0500110  27.7578240  44.9536800  80.6369670
  26.9820340  44.4737240  80.9268240  28.4091170  44.2742450  80.4625830
  21.7744070  45.2656610  81.5145430  20.9428950  45.0105320  81.9141940
  22.3825050  45.3367380  82.2503350  31.7785670  49.3596990  79.4168800
  31.3167200  48.5884230  79.7455970  32.5911220  49.3863060  79.9221250
  21.7545330  49.2996700  81.7103450  22.0573370  48.4094440  81.5313670
  22.4988920  49.8566920  81.4825700  20.1836020  40.2258500  75.2987820
  19.2952720  40.5674470  75.1967700  20.4677210  40.0258820  74.4068650
  18.1469030  42.8264150  81.1827520  18.7185140  42.0586350  81.1831160
  18.1470570  43.1252910  80.2734130  28.0048980  51.6455000  79.0372790
  27.3860420  52.1012500  78.4667230  28.8600760  51.8006460  78.6362490
  27.1987230  47.6293990  80.6439830  27.1295510  46.6883930  80.4828960
  27.9607090  47.7195400  81.2162400  19.3893900  38.2348510  82.9696450
  19.2096740  37.3374260  83.2499210  18.9873980  38.7820380  83.6443400
  28.2292400  40.4364370  80.8708760  28.6057220  39.5636250  80.7582430
  28.1311910  40.7723070  79.9799200  22.3597410  38.8090000  76.3326200
  22.4664160  39.7093730  76.6394960  21.4489770  38.7607970  76.0420850
  32.0116520  37.9314810  77.8037100  32.8326140  37.4411380  77.8462580
  32.0450600  38.5212470  78.5568940  20.0080570  40.7309010  81.5778790
  20.6890680  40.9947380  82.1966190  19.6928620  39.8909880  81.9116800
  24.2005140  41.7776370  80.6651380  24.7083360  42.2757340  81.3056400
  24.7318380  41.0011570  80.4890740  28.8712330  46.5294240  76.4304700
  28.2529600  46.9943690  75.8667420  29.3835580  47.2221720  76.8474210
  23.7344090  46.0570110  83.1088300  23.4013470  46.6839030  83.7509370
  23.9110770  46.5831990  82.3289970  32.2478000  39.8715190  80.5764640
  31.5433570  40.1600080  81.1567750  32.6090160  40.6815300  80.2164200
  22.1656570  38.1284890  82.9385250  22.5073380  38.9726940  82.6439120
  21.2272380  38.2768630  83.0550590  18.2395530  47.2150770  73.8044330
  17.8623510  47.7037870  73.0729230  18.4968600  47.8876050  74.4350860
  33.8640780  49.4890320  82.8392120  33.1804300  50.1589430  82.8308790
  34.4035070  49.6870970  82.0736980  35.3164920  39.3169980  80.9673850
  34.3689830  39.3508960  81.0989280  35.6414910  40.1308930  81.3523210
  25.8484460  35.6167160  79.2629840  26.1559440  35.0614050  78.5465340
  24.9185160  35.7511620  79.0802830  31.3999520  51.3334450  81.5537300
  31.4126680  50.9296740  80.6859560  30.8474740  52.1081740  81.4498730
  32.6944940  48.0550670  76.6427470  32.5841270  47.1125000  76.7676890
  32.6913190  48.4166310  77.5290230  30.7984960  46.2364290  82.8819910
  31.2153750  46.0224400  82.0473370  31.5224780  46.4937080  83.4528530
  28.2365220  43.6815990  75.9989960  27.3094500  43.6153370  76.2278430
  28.3890040  44.6196120  75.8845200  28.2234300  39.9532990  72.9957120
  27.2837970  40.1146950  73.0809580  28.5417560  40.6718670  72.4493110
  34.7447060  44.6351510  82.9736150  33.9165690  44.7044600  82.4986280
  35.3397540  45.2205820  82.5051980  32.2662510  45.2436290  76.5025210
  31.6474930  44.9055840  75.8551510  32.2486960  44.5996050  77.2104400
  23.8421860  44.2080730  78.7809690  23.4378860  43.4957980  78.2855590
  23.9284980  43.8633970  79.6697730  24.3103560  47.8948290  80.9448900
  24.0131850  47.2893760  80.2656680  25.2603380  47.9325600  80.8338260
  22.5550480  40.9823940  82.5608730  23.1065070  41.0919280  81.7861980
  23.0693990  41.3561540  83.2763960  30.4427210  44.4823100  73.5097960
  30.8820490  43.6445530  73.3635780  31.1555630  45.1152500  73.5962100
  28.5522590  49.4219170  77.4779200  28.9918500  50.1643500  77.0634590
  28.4909480  49.6645740  78.4018160  20.5426490  43.1025710  76.2816340
  20.4224090  43.8287800  75.6697610  20.2327380  42.3328620  75.8044250
  18.1811860  46.2740850  82.0884980  18.2592280  46.4089620  81.1440700
  18.7953540  45.5656740  82.2813100  19.4259490  47.9741040  78.4991160
  19.0187570  48.1155630  77.6444760  20.3172500  47.6901200  78.2962370
  31.2192770  52.4088290  74.8342210  31.0593910  52.1191230  75.7324040
  31.0539480  51.6328420  74.2987440  23.6981150  52.1886820  76.6113830
  23.5223630  51.2722360  76.3981630  22.8436890  52.5474110  76.8511630
  30.9218900  49.9175850  73.3940210  30.2284060  49.9153140  72.7342490
  31.6641760  49.4935170  72.9634380  30.4868830  51.5438560  77.4688700
  30.9425780  50.7627940  77.7827320  30.8261350  52.2545380  78.0129880
  23.0090150  36.4460780  79.6640010  22.5658300  37.2270320  79.3324530
  23.5675140  36.7690670  80.3710950  26.1248970  36.0671480  74.5445840
  25.5003150  36.0631350  75.2699150  26.0379090  35.2002440  74.1481810
  25.0466050  36.9908110  81.5229610  25.3438380  37.8970940  81.4421630
  25.5951610  36.5026890  80.9089180  22.8004370  41.5694350  77.3921260
  22.5745290  41.3531520  78.2967880  22.0196900  42.0022810  77.0467230
  30.0302130  41.5757720  75.9911910  29.4311020  42.2993520  75.8075530
  30.5781740  41.5134500  75.2088360  28.6367000  40.2121260  78.0215190
  29.0296570  40.5293460  77.2083880  28.9983850  39.3333140  78.1359710
  17.6731170  36.8022060  80.2445390  17.3844220  37.3724920  80.9570370
  18.4176930  36.3226510  80.6076620  17.8601400  40.7442180  71.4548110
  17.7776070  41.6872940  71.5963100  17.5084460  40.6017090  70.5760460
  29.2222140  42.8027010  82.1165970  28.4903260  43.3113820  82.4656070
  28.8246480  41.9856990  81.8154750  25.6599530  39.4781210  80.5218460
  25.6635590  39.0371160  79.6723000  26.5550650  39.7998540  80.6290280
  21.5101910  39.3607700  79.4812670  21.1701960  39.8382930  80.2379720
  20.7479230  38.9072820  79.1213770  25.7219680  40.4793290  73.5125220
  25.8432500  40.4379770  74.4611040  25.3368190  41.3417440  73.3571950
  29.6848050  38.2560690  81.5288910  29.7020790  38.7069340  82.3730760
  29.4363630  37.3566330  81.7422350  24.7341180  42.7894430  72.9108520
  24.1658080  42.3412680  72.2844430  25.4430180  43.1487210  72.3773670
  25.9607500  43.5382990  82.2683870  26.3277630  43.0641560  83.0145210
  25.7712560  44.4124560  82.6092210  18.8247990  38.2826680  78.3977340
  18.5394910  37.9182350  79.2355960  18.7626850  37.5507140  77.7840480
  22.2788660  46.7852620  75.1834930  21.5050920  46.2450240  75.0233650
  23.0083290  46.2659230  74.8452690  33.0376640  45.7817980  80.9761320
  33.7575760  46.2773270  80.5857430  32.8358460  45.1035870  80.3315190
  28.4986580  37.1755940  75.1190710  27.6851190  36.6769110  75.0436020
  28.3048530  38.0154190  74.7027060  31.2134970  41.5475590  73.4152870
  32.1014590  41.8592820  73.2404210  31.1840060  40.6747840  73.0233450
  22.3226060  46.4533000  78.8213740  22.8404730  45.6501260  78.7670630
  21.8710080  46.3912140  79.6630570  27.2095560  47.7199280  74.0941040
  27.5511260  48.4641510  73.5984360  26.3808270  48.0330400  74.4565870
  33.4849240  42.8587430  72.8832730  33.4012960  43.2901650  72.0329170
  34.2043430  43.3185780  73.3159550  34.5136490  49.7129690  75.6114860
  33.8712650  49.0585310  75.8858580  34.1267150  50.1184780  74.8355530
  30.0922970  47.0415120  79.4586550  30.4446790  46.4443250  78.7987920
  29.2085300  46.7159350  79.6294800  26.1786250  47.8012810  76.8656960
  26.8657380  48.3482020  77.2464550  25.3918670  48.3453540  76.9006570
  18.3178650  43.4185630  72.3574040  19.1873500  43.7010430  72.6409960
  17.8268970  44.2321500  72.2422850  25.4813460  44.8058840  76.4782320
  25.9376240  45.6164090  76.7042510  25.1301670  44.4881980  77.3100810
  21.3825240  35.1496490  76.9504840  21.2539870  35.1414390  77.8989760
  20.5587260  35.4879580  76.5995850  29.0578150  48.3197530  82.4252070
  29.7000380  47.6190690  82.5384240  29.5827500  49.0995970  82.2448960
  32.9033870  48.6046150  72.1491210  32.6771450  47.8876590  72.7415850
  32.5130070  48.3558590  71.3112960  18.6849900  52.6313010  72.9235670
  19.0447540  53.2302350  72.2692940  18.5442240  53.1772900  73.6970700
  32.4850120  46.5218090  73.8105370  32.1971820  46.9830780  74.5983250
  33.2802290  46.0615860  74.0789590  24.7018520  50.0144210  73.7409340
  24.6928620  50.7473900  73.1253850  23.7816880  49.7675790  73.8336300
  20.3025160  45.2359100  74.4856100  19.6953110  45.9758000  74.4951400
  20.7774510  45.3258460  73.6594300  33.2419980  38.3566860  74.9700550
  32.6133140  38.4612530  74.2558780  32.7471900  38.5763640  75.7594430
  27.6878120  50.0772450  72.4034530  27.7890100  49.8736440  71.4736510
  26.7879860  49.8230730  72.6082310  25.2104010  40.6352810  76.3858430
  24.5020160  41.1039150  76.8272040  25.4948490  39.9774820  77.0203620
  29.2419440  37.3603470  77.8254220  29.1187220  37.3789600  76.8763730
  30.1904000  37.4082410  77.9452620  26.3296230  52.5958770  77.0982200
  26.5837730  52.5580160  76.1761570  25.3808710  52.4692100  77.0910450
  23.4139030  38.9437890  73.7609140  24.2629560  39.3808040  73.6949330
  23.0470300  39.2558150  74.5881200  32.3348810  43.5150650  78.6740710
  31.3938950  43.5300880  78.8488400  32.6492880  42.7286610  79.1201010
  22.3130450  45.1970250  72.2344670  23.0793720  45.0851610  72.7970100
  22.3905140  44.5008220  71.5821440  21.0077210  42.6295320  72.9177560
  21.0880800  41.6822830  73.0294960  21.8996960  42.9602200  73.0238220
  34.3374390  50.6859500  80.3494970  34.4621810  51.5090670  80.8218780
  35.2039950  50.4750230  80.0019120  21.8091920  52.7790710  80.0212100
  22.5454400  52.2306170  80.2920670  22.1932840  53.6446720  79.8818090
  18.6937400  48.8464280  75.8953610  17.7677180  49.0885420  75.8859020
  19.1593830  49.6738540  75.7738360  24.9194230  51.9521020  71.8437670
  25.7122840  52.2409850  71.3919460  24.3998580  51.5213190  71.1650150
  33.9724400  51.1791150  73.2674410  33.6865910  50.7656290  72.4528590
  33.7743950  52.1078860  73.1474930  25.4371630  47.1724430  71.7080020
  25.3322270  46.5576780  72.4341400  25.2695850  46.6490320  70.9243030
  28.6774360  46.2344460  72.3122010  28.1284460  46.6813760  72.9564750
  29.2993620  45.7293710  72.8359680  24.3449480  45.1935380  74.2087310
  24.7665900  45.0275250  75.0518700  24.4700320  44.3835610  73.7142450
  26.8577120  44.2172990  71.4564410  27.3782780  43.5022010  71.0905560
  27.5045520  44.8558860  71.7564920  23.2408380  41.2668610  71.1545470
  23.0397440  40.4035970  71.5158810  23.0700430  41.1801970  70.2167070
  30.7196690  36.0776840  73.6832350  30.9998980  35.2344740  74.0391770
  29.9462420  36.3099950  74.1971100  22.0391180  38.3669230  71.1423350
  22.3417080  38.3736660  70.2342500  22.7785770  38.0167090  71.6391010
  25.2576110  37.3103850  72.1279550  24.9098110  36.6327840  71.5482000
  25.4588880  36.8493360  72.9422940  27.4225150  52.2984600  73.7466150
  28.3175940  52.6369570  73.7684910  27.4542780  51.5764010  73.1190430
  21.0621310  47.6711650  71.9753150  21.4996180  48.2141320  72.6310730
  21.5469040  46.8458600  71.9849490  18.2767110  50.4600680  79.4273410
  18.6070120  49.5921740  79.1952050  18.7058110  50.6659200  80.2578370
  22.8729030  48.7909690  77.0875380  22.5724570  48.6674660  77.9879290
  22.7666520  47.9318280  76.6791110  18.7657320  51.3271270  82.1655040
  18.3288310  51.5072070  82.9979190  19.3335000  52.0845890  82.0236760
  35.6420950  48.5706090  71.7902060  34.8113910  48.6382740  72.2609290
  35.8192780  49.4610210  71.4868920  35.0977410  45.3153570  74.2936260
  35.8596320  45.8850220  74.3995950  35.1131780  44.7480770  75.0644570
  18.5981750  43.8391500  78.5243920  17.9430590  43.5703140  77.8803620
  19.4359700  43.7295980  78.0745900  36.1037380  46.1703670  79.1378190
  36.4746210  45.3870990  78.7314160  36.7439310  46.8592770  78.9595490
  31.5472190  38.6332790  72.7462410  31.9657070  38.4463770  71.9059070
  31.2408250  37.7811840  73.0565340  35.0461920  43.5456930  76.4438210
  34.6705520  42.7784860  76.0119500  34.3165040  43.9279630  76.9313140
  17.8119830  41.0490430  74.4669250  16.9083910  41.3120630  74.2920910
  18.2960450  41.3201600  73.6869210  34.3212880  41.7714420  79.7445450
  34.8450360  41.2777070  79.1135620  34.9072300  41.9064780  80.4893020
  34.5002600  41.8554290  83.2665000  33.5505310  41.8217830  83.3809990
  34.6815610  42.7654400  83.0314770  20.3547040  40.1055970  72.3763630
  21.0638740  39.6839190  71.8910910  19.6386980  40.1731200  71.7446980
  20.0021200  36.1595300  71.4166280  20.7249330  36.7004240  71.7347500
  20.2745720  35.8858720  70.5407820  33.8112850  41.0287770  75.6837860
  34.3071970  40.7958640  76.4686740  33.6128920  40.1899610  75.2675500
  19.6913390  35.4101490  81.3188900  20.3389580  34.8598870  80.8784060
  20.1115230  35.6644640  82.1404710  35.2400010  39.6648720  78.2175540
  35.1299290  39.5104760  79.1557810  36.0007600  39.1369660  77.9750950
  36.1290280  37.4956640  71.4581680  37.0539590  37.3637820  71.2499970
  36.1066070  37.5749460  72.4118130  36.2028770  38.2667300  74.0838390
  35.4080270  38.2012420  74.6131300  36.4072050  39.2017940  74.0723740
  33.1447190  52.3058850  78.0776780  33.7406260  51.9843420  77.4011200
  33.4025340  51.8330670  78.8690050  33.6959400  52.9554150  81.9074510
  33.2362370  53.7069960  81.5332530  33.0671860  52.2360620  81.8489310
  24.1255120  51.2642390  81.0822640  24.6420140  50.6529750  80.5570900
  24.7752500  51.7671170  81.5733650  26.8650620  52.1550880  81.9091620
  27.1528430  51.9005180  81.0324630  27.3773840  51.6028240  82.4997190
  28.0827630  35.8941080  82.4888130  27.2999420  36.3686580  82.7684890
  27.7890560  34.9895910  82.3801310  32.6348700  36.5964180  80.5337220
  33.0756790  36.5409280  79.6858820  32.3656290  37.5122190  80.6047400
  34.4987270  36.2279420  78.5446040  34.4375670  35.2840640  78.3977060
  35.2779300  36.3359510  79.0899500  18.8040020  52.3671780  77.5069990
  18.6362060  51.7342460  78.2051880  17.9374530  52.5731180  77.1564180
  19.4268040  36.1988560  75.0101850  20.1847400  36.3117440  74.4365880
  18.9645210  37.0357760  74.9645280  25.9681850  38.3127830  78.0004160
  25.1556360  37.9384720  77.6600040  26.4723490  37.5572910  78.3025350
  30.4706830  34.9770280  79.2387230  31.0736200  35.5490490  79.7135750
  29.7299820  35.5409720  79.0161130  33.6141430  35.3791840  74.5127510
  33.8092060  36.2775290  74.7794940  32.8271300  35.1478920  75.0060460
  20.4102720  51.0605010  74.9520130  19.8850340  51.4413040  74.2482090
  20.3347300  51.6855780  75.6729840  21.7993190  36.7252610  73.5503820
  22.3285950  35.9382410  73.4211770  22.4321510  37.4043800  73.7839350
  23.9931030  36.4627750  76.6049210  23.3633770  35.7615060  76.7719340
  23.4536170  37.2231880  76.3882370  35.1668040  52.6192550  76.2734070
  35.3420230  51.9330290  75.6294990  34.4689610  53.1439600  75.8810740
  23.0095690  53.0087390  73.8269380  23.7414510  52.7246670  73.2793270
  23.2689360  52.7700670  74.7168760  22.1710480  49.1252120  73.8315710
  21.5419360  49.5937220  74.3801540  22.2858310  48.2801340  74.2661900
  21.7744070  45.2656610  62.7401940  20.9428950  45.0105320  63.1398450
  22.3825050  45.3367380  63.4759860  21.7545330  49.2996700  62.9359960
  22.0573370  48.4094440  62.7570180  22.4988920  49.8566920  62.7082210
  23.7344090  46.0570110  64.3344810  23.4013470  46.6839030  64.9765880
  23.9110770  46.5831990  63.5546480  22.9463190  48.0250910  66.1493990
  23.5637190  48.7001990  65.8678440  22.0856310  48.4338890  66.0581490
  32.3989170  51.4680160  65.8328510  31.9219730  52.2752350  65.6401120
  31.7150960  50.8158490  65.9854720  23.4021990  47.6329980  68.8213210
  22.5050520  47.8569950  69.0686610  23.4274860  47.7564920  67.8724610
  22.2293210  44.5043300  67.3970580  22.0900980  45.3766100  67.7657980
  21.3474570  44.1616110  67.2518520  24.0273560  50.4465000  69.6055730
  23.9988990  50.8507950  68.7384160  23.8638530  49.5175360  69.4427330
  35.9788380  51.2292100  70.9019900  36.4548100  51.7074990  71.5808980
  36.5995540  51.1609590  70.1765400  18.1811860  46.2740850  63.3141490
  18.2592280  46.4089620  62.3697210  18.7953540  45.5656740  63.5069610
  29.2438370  52.1232950  66.6314720  29.7583040  52.0340960  67.4337150
  28.4007450  52.4692650  66.9242630  18.2371380  47.3155020  65.8535950
  18.4002420  46.8460380  65.0355320  18.7023830  46.8078580  66.5184790
  29.3914180  42.0340000  69.7227290  29.7167590  41.2003750  69.3829520
  30.1794510  42.5568520  69.8705620  25.2403580  42.4679930  69.2838040
  25.1447180  41.5274660  69.1338440  26.0835560  42.6895000  68.8886110
  20.3714120  38.8793600  67.4371820  19.9777510  39.7268810  67.6444600
  19.6832520  38.2419970  67.6280460  26.9459170  38.9628570  70.5068560
  26.2557490  38.7700770  71.1414650  27.6891470  39.2463210  71.0392860
  19.8110360  46.6906450  68.0131760  19.4265150  46.0500120  68.6114720
  20.1222550  47.3942570  68.5826490  23.7506870  42.5791630  65.8124590
  23.4463940  43.4583610  66.0374950  24.7053330  42.6391420  65.8482030
  28.4195440  45.8527040  68.0886830  28.3532750  44.9322710  67.8344420
  27.7900580  45.9502480  68.8031470  19.8070600  43.4194370  66.9595950
  19.4485540  44.0848220  67.5469290  19.5125160  42.5877920  67.3308570
  23.0083720  43.8778610  69.8435500  22.7083860  44.0235790  68.9463320
  23.7794960  43.3183900  69.7508890  28.3512170  48.6747610  67.8390630
  28.3656710  47.7428570  67.6209540  27.6437270  48.7607370  68.4780400
  30.8315770  49.1192430  66.8544640  31.1672010  49.7059120  67.5322560
  29.9116110  48.9885140  67.0842430  18.6691760  50.8967870  68.6234580
  18.7782880  49.9562610  68.4829970  18.0172320  51.1622620  67.9748310
  26.6604350  49.1683760  70.0232700  26.3401220  48.4493000  70.5678390
  25.9862710  49.8438830  70.0968760  26.8359940  42.0549510  65.6107470
  27.3345190  42.5295330  66.2759320  26.9782890  41.1313030  65.8177500
  21.8091920  52.7790710  61.2468610  22.5454400  52.2306170  61.5177180
  22.1932840  53.6446720  61.1074600  20.8150200  51.9636780  70.4354190
  21.6162930  52.2848830  70.8489590  20.3002020  51.6032360  71.1574100
  29.6514830  48.0716650  70.3829600  29.0452990  48.0948250  69.6425350
  29.3468940  47.3399690  70.9196850  31.0815200  51.7996940  68.9939010
  32.0336950  51.7154960  68.9439250  30.9343420  52.4638650  69.6672800
  18.5348010  44.4510240  69.3790240  19.0387030  43.8717520  69.9506470
  17.7955430  44.7350470  69.9166610  25.5885950  45.8581230  68.9125760
  24.8231620  46.4266230  68.8280430  25.7701910  45.5657440  68.0193990
  32.7309300  47.5886560  69.4700780  33.4718770  47.9262320  68.9668240
  31.9681980  47.7578620  68.9170550  20.5671090  42.5939830  70.2740310
  20.6076430  42.2953700  71.1825540  21.4216590  42.9947440  70.1147830
  22.5076900  41.1731930  68.2414800  21.9773360  40.6822880  67.6138140
  23.1764970  41.6016130  67.7072730  31.4054960  45.6401390  68.0055990
  31.8195980  45.7946470  68.8546410  30.4705960  45.7656610  68.1681770
  31.8777130  42.9797550  70.0095140  32.4597900  42.2249870  69.9215620
  32.0538900  43.5104990  69.2326620  26.1670190  45.5921870  65.9751920
  26.5858300  46.4354600  65.8028160  25.2478820  45.7293910  65.7458700
  28.5034090  43.3238050  67.3589760  28.6230300  42.7279190  68.0984600
  29.3628090  43.3607740  66.9391060  24.0177610  51.8974880  67.0909650
  23.4798700  52.6220940  66.7718350  24.2711570  51.4205220  66.3006990
  25.2702860  39.8659400  68.6165580  25.8602550  39.5575250  69.3043400
  24.4523100  39.3939150  68.7725480  30.0896290  39.4825210  68.8498600
  29.4011810  38.8206750  68.7848590  30.8102310  39.0363480  69.2947060
  26.8739820  53.1326090  67.3496300  26.7998520  54.0361230  67.6568670
  25.9718660  52.8137990  67.3218370  18.2767110  50.4600680  60.6529920
  18.6070120  49.5921740  60.4208560  18.7058110  50.6659200  61.4834880
  18.7657320  51.3271270  63.3911550  18.3288310  51.5072070  64.2235700
  19.3335000  52.0845890  63.2493270  34.4019500  50.8288270  67.6788860
  33.8021490  50.8880830  66.9352780  34.5313400  49.8893250  67.8085710
  19.6357680  44.2244070  64.2903770  20.0030720  44.1371470  65.1699790
  19.0668500  43.4610620  64.1910630  19.1873680  41.1353160  68.1962190
  18.2929730  41.1019920  68.5355900  19.7271230  41.3339950  68.9613440
  32.8749610  37.9184880  70.0813940  33.7519790  37.9268280  70.4647940
  32.8870450  37.1815720  69.4706290  17.8119830  41.0490430  55.6925760
  16.9083910  41.3120630  55.5177420  18.2960450  41.3201600  54.9125720
  21.0509760  48.7376760  69.4523920  21.0079390  48.3669670  70.3338380
  21.1820770  49.6754330  69.5925740  24.7515790  50.2936350  65.0533640
  24.5107150  50.5610910  64.1664160  25.6918430  50.4642080  65.1084500
  26.9570210  36.7569040  68.8090150  26.8959100  37.3490870  69.5585560
  27.8970590  36.6495000  68.6640410  36.0119950  52.3130730  65.8544280
  35.5178230  52.7099600  65.1371410  35.4033240  51.6879940  66.2481560
  20.8897790  51.6839010  66.5721700  20.2958110  51.5523710  67.3111740
  20.8821630  50.8477150  66.1063800  33.6959400  52.9554150  63.1331020
  33.2362370  53.7069960  62.7589040  33.0671860  52.2360620  63.0745820
  20.5210020  49.0497390  65.5229740  19.7944080  48.4302680  65.4555690
  20.5819170  49.4438000  64.6527820  26.8650620  52.1550880  63.1348130
  27.1528430  51.9005180  62.2581140  27.3773840  51.6028240  63.7253700
  18.8040020  52.3671780  58.7326500  18.6362060  51.7342460  59.4308390
  17.9374530  52.5731180  58.3820690  26.9322980  53.0766980  70.5016330
  27.8590290  52.8411250  70.5452290  26.9173410  53.9038980  70.0202360
  24.1186590  35.7411730  70.2658210  23.8370860  36.2445330  69.5019030
  24.5006290  34.9433480  69.9000340  30.7202050  35.1565310  70.8438680
  30.6067500  35.4759920  71.7390200  31.5371790  35.5577820  70.5475960
  33.5000540  52.3036840  70.3257370  34.2925860  51.8086070  70.1183330
  33.7933690  52.9826980  70.9332980  21.7545330  49.2996700  44.1616470
  22.0573370  48.4094440  43.9826690  22.4988920  49.8566920  43.9338720
  18.1469030  42.8264150  43.6340540  18.7185140  42.0586350  43.6344180
  18.1470570  43.1252910  42.7247150  22.9463190  48.0250910  47.3750500
  23.5637190  48.7001990  47.0934950  22.0856310  48.4338890  47.2838000
  18.1811860  46.2740850  44.5398000  18.2592280  46.4089620  43.5953720
  18.7953540  45.5656740  44.7326120  19.4259490  47.9741040  40.9504180
  19.0187570  48.1155630  40.0957780  20.3172500  47.6901200  40.7475390
  23.6981150  52.1886820  39.0626850  23.5223630  51.2722360  38.8494650
  22.8436890  52.5474110  39.3024650  18.2371380  47.3155020  47.0792460
  18.4002420  46.8460380  46.2611830  18.7023830  46.8078580  47.7441300
  19.8110360  46.6906450  49.2388270  19.4265150  46.0500120  49.8371230
  20.1222550  47.3942570  49.8083000  18.6849900  52.6313010  35.3748690
  19.0447540  53.2302350  34.7205960  18.5442240  53.1772900  36.1483720
  18.6691760  50.8967870  49.8491090  18.7782880  49.9562610  49.7086480
  18.0172320  51.1622620  49.2004820  21.8091920  52.7790710  42.4725120
  22.5454400  52.2306170  42.7433690  22.1932840  53.6446720  42.3331110
  24.9194230  51.9521020  34.2950690  25.7122840  52.2409850  33.8432480
  24.3998580  51.5213190  33.6163170  24.0177610  51.8974880  48.3166160
  23.4798700  52.6220940  47.9974860  24.2711570  51.4205220  47.5263500
  26.8739820  53.1326090  48.5752810  26.7998520  54.0361230  48.8825180
  25.9718660  52.8137990  48.5474880  18.2767110  50.4600680  41.8786430
  18.6070120  49.5921740  41.6465070  18.7058110  50.6659200  42.7091390
  18.7657320  51.3271270  44.6168060  18.3288310  51.5072070  45.4492210
  19.3335000  52.0845890  44.4749780  24.7515790  50.2936350  46.2790150
  24.5107150  50.5610910  45.3920670  25.6918430  50.4642080  46.3341010
  20.8897790  51.6839010  47.7978210  20.2958110  51.5523710  48.5368250
  20.8821630  50.8477150  47.3320310  20.5210020  49.0497390  46.7486250
  19.7944080  48.4302680  46.6812200  20.5819170  49.4438000  45.8784330
  24.1255120  51.2642390  43.5335660  24.6420140  50.6529750  43.0083920
  24.7752500  51.7671170  44.0246670  26.8650620  52.1550880  44.3604640
  27.1528430  51.9005180  43.4837650  27.3773840  51.6028240  44.9510210
  18.8040020  52.3671780  39.9583010  18.6362060  51.7342460  40.6564900
  17.9374530  52.5731180  39.6077200  20.4102720  51.0605010  37.4033150
  19.8850340  51.4413040  36.6995110  20.3347300  51.6855780  38.1242860
  26.9322980  53.0766980  51.7272840  27.8590290  52.8411250  51.7708800
  26.9173410  53.9038980  51.2458870  23.0095690  53.0087390  36.2782400
  23.7414510  52.7246670  35.7306290  23.2689360  52.7700670  37.1681780
  22.1710480  49.1252120  36.2828730  21.5419360  49.5937220  36.8314560
  22.2858310  48.2801340  36.7174920  29.6260200  43.1757780  22.4329930
  29.5454250  42.2612390  22.1621640  29.2124620  43.6724850  21.7269640
  27.7578240  44.9536800  24.3139200  26.9820340  44.4737240  24.6037770
  28.4091170  44.2742450  24.1395360  21.7744070  45.2656610  25.1914960
  20.9428950  45.0105320  25.5911470  22.3825050  45.3367380  25.9272880
  31.7785670  49.3596990  23.0938330  31.3167200  48.5884230  23.4225500
  32.5911220  49.3863060  23.5990780  21.7545330  49.2996700  25.3872980
  22.0573370  48.4094440  25.2083200  22.4988920  49.8566920  25.1595230
  20.1836020  40.2258500  18.9757350  19.2952720  40.5674470  18.8737230
  20.4677210  40.0258820  18.0838180  18.1469030  42.8264150  24.8597050
  18.7185140  42.0586350  24.8600690  18.1470570  43.1252910  23.9503660
  28.0048980  51.6455000  22.7142320  27.3860420  52.1012500  22.1436760
  28.8600760  51.8006460  22.3132020  27.1987230  47.6293990  24.3209360
  27.1295510  46.6883930  24.1598490  27.9607090  47.7195400  24.8931930
  19.3893900  38.2348510  26.6465980  19.2096740  37.3374260  26.9268740
  18.9873980  38.7820380  27.3212930  28.2292400  40.4364370  24.5478290
  28.6057220  39.5636250  24.4351960  28.1311910  40.7723070  23.6568730
  22.3597410  38.8090000  20.0095730  22.4664160  39.7093730  20.3164490
  21.4489770  38.7607970  19.7190380  20.0080570  40.7309010  25.2548320
  20.6890680  40.9947380  25.8735720  19.6928620  39.8909880  25.5886330
  24.2005140  41.7776370  24.3420910  24.7083360  42.2757340  24.9825930
  24.7318380  41.0011570  24.1660270  22.4841240  36.4174930  28.6084330
  22.4859680  36.9347320  27.8030230  21.6545550  35.9405110  28.5854260
  28.8712330  46.5294240  20.1074230  28.2529600  46.9943690  19.5436950
  29.3835580  47.2221720  20.5243740  23.7344090  46.0570110  26.7857830
  23.4013470  46.6839030  27.4278900  23.9110770  46.5831990  26.0059500
  22.1656570  38.1284890  26.6154780  22.5073380  38.9726940  26.3208650
  21.2272380  38.2768630  26.7320120  22.9463190  48.0250910  28.6007010
  23.5637190  48.7001990  28.3191460  22.0856310  48.4338890  28.5094510
  18.2395530  47.2150770  17.4813860  17.8623510  47.7037870  16.7498760
  18.4968600  47.8876050  18.1120390  33.8640780  49.4890320  26.5161650
  33.1804300  50.1589430  26.5078320  34.4035070  49.6870970  25.7506510
  31.3999520  51.3334450  25.2306830  31.4126680  50.9296740  24.3629090
  30.8474740  52.1081740  25.1268260  32.6944940  48.0550670  20.3197000
  32.5841270  47.1125000  20.4446420  32.6913190  48.4166310  21.2059760
  28.2365220  43.6815990  19.6759490  27.3094500  43.6153370  19.9047960
  28.3890040  44.6196120  19.5614730  28.2234300  39.9532990  16.6726650
  27.2837970  40.1146950  16.7579110  28.5417560  40.6718670  16.1262640
  32.2662510  45.2436290  20.1794740  31.6474930  44.9055840  19.5321040
  32.2486960  44.5996050  20.8873930  23.8421860  44.2080730  22.4579220
  23.4378860  43.4957980  21.9625120  23.9284980  43.8633970  23.3467260
  24.3103560  47.8948290  24.6218430  24.0131850  47.2893760  23.9426210
  25.2603380  47.9325600  24.5107790  22.5550480  40.9823940  26.2378260
  23.1065070  41.0919280  25.4631510  23.0693990  41.3561540  26.9533490
  32.3989170  51.4680160  28.2841530  31.9219730  52.2752350  28.0914140
  31.7150960  50.8158490  28.4367740  30.4427210  44.4823100  17.1867490
  30.8820490  43.6445530  17.0405310  31.1555630  45.1152500  17.2731630
  22.2293210  44.5043300  29.8483600  22.0900980  45.3766100  30.2171000
  21.3474570  44.1616110  29.7031540  28.5522590  49.4219170  21.1548730
  28.9918500  50.1643500  20.7404120  28.4909480  49.6645740  22.0787690
  24.0273560  50.4465000  32.0568750  23.9988990  50.8507950  31.1897180
  23.8638530  49.5175360  31.8940350  20.5426490  43.1025710  19.9585870
  20.4224090  43.8287800  19.3467140  20.2327380  42.3328620  19.4813780
  18.1811860  46.2740850  25.7654510  18.2592280  46.4089620  24.8210230
  18.7953540  45.5656740  25.9582630  19.4259490  47.9741040  22.1760690
  19.0187570  48.1155630  21.3214290  20.3172500  47.6901200  21.9731900
  29.2438370  52.1232950  29.0827740  29.7583040  52.0340960  29.8850170
  28.4007450  52.4692650  29.3755650  31.2192770  52.4088290  18.5111740
  31.0593910  52.1191230  19.4093570  31.0539480  51.6328420  17.9756970
  23.6981150  52.1886820  20.2883360  23.5223630  51.2722360  20.0751160
  22.8436890  52.5474110  20.5281160  30.9218900  49.9175850  17.0709740
  30.2284060  49.9153140  16.4112020  31.6641760  49.4935170  16.6403910
  30.4868830  51.5438560  21.1458230  30.9425780  50.7627940  21.4596850
  30.8261350  52.2545380  21.6899410  18.2371380  47.3155020  28.3048970
  18.4002420  46.8460380  27.4868340  18.7023830  46.8078580  28.9697810
  23.0090150  36.4460780  23.3409540  22.5658300  37.2270320  23.0094060
  23.5675140  36.7690670  24.0480480  27.2959960  39.3129300  28.9444860
  26.8339330  39.5212320  29.7564800  26.8938070  38.4988650  28.6415530
  26.1248970  36.0671480  18.2215370  25.5003150  36.0631350  18.9468680
  26.0379090  35.2002440  17.8251340  25.0466050  36.9908110  25.1999140
  25.3438380  37.8970940  25.1191160  25.5951610  36.5026890  24.5858710
  22.8004370  41.5694350  21.0690790  22.5745290  41.3531520  21.9737410
  22.0196900  42.0022810  20.7236760  30.0302130  41.5757720  19.6681440
  29.4311020  42.2993520  19.4845060  30.5781740  41.5134500  18.8857890
  28.6367000  40.2121260  21.6984720  29.0296570  40.5293460  20.8853410
  28.9983850  39.3333140  21.8129240  20.3714120  38.8793600  29.8884840
  19.9777510  39.7268810  30.0957620  19.6832520  38.2419970  30.0793480
  17.6731170  36.8022060  23.9214920  17.3844220  37.3724920  24.6339900
  18.4176930  36.3226510  24.2846150  17.8601400  40.7442180  15.1317640
  17.7776070  41.6872940  15.2732630  17.5084460  40.6017090  14.2529990
  25.6599530  39.4781210  24.1987990  25.6635590  39.0371160  23.3492530
  26.5550650  39.7998540  24.3059810  21.5101910  39.3607700  23.1582200
  21.1701960  39.8382930  23.9149250  20.7479230  38.9072820  22.7983300
  25.7219680  40.4793290  17.1894750  25.8432500  40.4379770  18.1380570
  25.3368190  41.3417440  17.0341480  24.7341180  42.7894430  16.5878050
  24.1658080  42.3412680  15.9613960  25.4430180  43.1487210  16.0543200
  19.8110360  46.6906450  30.4644780  19.4265150  46.0500120  31.0627740
  20.1222550  47.3942570  31.0339510  25.9607500  43.5382990  25.9453400
  26.3277630  43.0641560  26.6914740  25.7712560  44.4124560  26.2861740
  18.8247990  38.2826680  22.0746870  18.5394910  37.9182350  22.9125490
  18.7626850  37.5507140  21.4610010  23.7506870  42.5791630  28.2637610
  23.4463940  43.4583610  28.4887970  24.7053330  42.6391420  28.2995050
  22.2788660  46.7852620  18.8604460  21.5050920  46.2450240  18.7003180
  23.0083290  46.2659230  18.5222220  33.0376640  45.7817980  24.6530850
  33.7575760  46.2773270  24.2626960  32.8358460  45.1035870  24.0084720
  28.4986580  37.1755940  18.7960240  27.6851190  36.6769110  18.7205550
  28.3048530  38.0154190  18.3796590  31.2134970  41.5475590  17.0922400
  32.1014590  41.8592820  16.9173740  31.1840060  40.6747840  16.7002980
  22.3226060  46.4533000  22.4983270  22.8404730  45.6501260  22.4440160
  21.8710080  46.3912140  23.3400100  27.2095560  47.7199280  17.7710570
  27.5511260  48.4641510  17.2753890  26.3808270  48.0330400  18.1335400
  19.8070600  43.4194370  29.4108970  19.4485540  44.0848220  29.9982310
  19.5125160  42.5877920  29.7821590  28.3512170  48.6747610  30.2903650
  28.3656710  47.7428570  30.0722560  27.6437270  48.7607370  30.9293420
  34.5136490  49.7129690  19.2884390  33.8712650  49.0585310  19.5628110
  34.1267150  50.1184780  18.5125060  30.0922970  47.0415120  23.1356080
  30.4446790  46.4443250  22.4757450  29.2085300  46.7159350  23.3064330
  26.1786250  47.8012810  20.5426490  26.8657380  48.3482020  20.9234080
  25.3918670  48.3453540  20.5776100  18.3178650  43.4185630  16.0343570
  19.1873500  43.7010430  16.3179490  17.8268970  44.2321500  15.9192380
  25.4813460  44.8058840  20.1551850  25.9376240  45.6164090  20.3812040
  25.1301670  44.4881980  20.9870340  27.7846070  50.3165180  27.3844150
  28.4288290  50.5224560  28.0617570  28.1475510  49.5553580  26.9315000
  21.3825240  35.1496490  20.6274370  21.2539870  35.1414390  21.5759290
  20.5587260  35.4879580  20.2765380  32.9033870  48.6046150  15.8260740
  32.6771450  47.8876590  16.4185380  32.5130070  48.3558590  14.9882490
  30.8315770  49.1192430  29.3057660  31.1672010  49.7059120  29.9835580
  29.9116110  48.9885140  29.5355450  18.6849900  52.6313010  16.6005200
  19.0447540  53.2302350  15.9462470  18.5442240  53.1772900  17.3740230
  32.4850120  46.5218090  17.4874900  32.1971820  46.9830780  18.2752780
  33.2802290  46.0615860  17.7559120  18.6691760  50.8967870  31.0747600
  18.7782880  49.9562610  30.9342990  18.0172320  51.1622620  30.4261330
  24.7018520  50.0144210  17.4178870  24.6928620  50.7473900  16.8023380
  23.7816880  49.7675790  17.5105830  20.3025160  45.2359100  18.1625630
  19.6953110  45.9758000  18.1720930  20.7774510  45.3258460  17.3363830
  27.6878120  50.0772450  16.0804060  27.7890100  49.8736440  15.1506040
  26.7879860  49.8230730  16.2851840  25.2104010  40.6352810  20.0627960
  24.5020160  41.1039150  20.5041570  25.4948490  39.9774820  20.6973150
  26.8359940  42.0549510  28.0620490  27.3345190  42.5295330  28.7272340
  26.9782890  41.1313030  28.2690520  29.2419440  37.3603470  21.5023750
  29.1187220  37.3789600  20.5533260  30.1904000  37.4082410  21.6222150
  26.3296230  52.5958770  20.7751730  26.5837730  52.5580160  19.8531100
  25.3808710  52.4692100  20.7679980  23.4139030  38.9437890  17.4378670
  24.2629560  39.3808040  17.3718860  23.0470300  39.2558150  18.2650730
  32.3348810  43.5150650  22.3510240  31.3938950  43.5300880  22.5257930
  32.6492880  42.7286610  22.7970540  22.3130450  45.1970250  15.9114200
  23.0793720  45.0851610  16.4739630  22.3905140  44.5008220  15.2590970
  21.0077210  42.6295320  16.5947090  21.0880800  41.6822830  16.7064490
  21.8996960  42.9602200  16.7007750  34.3374390  50.6859500  24.0264500
  34.4621810  51.5090670  24.4988310  35.2039950  50.4750230  23.6788650
  21.8091920  52.7790710  23.6981630  22.5454400  52.2306170  23.9690200
  22.1932840  53.6446720  23.5587620  18.6937400  48.8464280  19.5723140
  17.7677180  49.0885420  19.5628550  19.1593830  49.6738540  19.4507890
  20.8150200  51.9636780  32.8867210  21.6162930  52.2848830  33.3002610
  20.3002020  51.6032360  33.6087120  24.9194230  51.9521020  15.5207200
  25.7122840  52.2409850  15.0688990  24.3998580  51.5213190  14.8419680
  31.0815200  51.7996940  31.4452030  32.0336950  51.7154960  31.3952270
  30.9343420  52.4638650  32.1185820  33.9724400  51.1791150  16.9443940
  33.6865910  50.7656290  16.1298120  33.7743950  52.1078860  16.8244460
  25.4371630  47.1724430  15.3849550  25.3322270  46.5576780  16.1110930
  25.2695850  46.6490320  14.6012560  28.6774360  46.2344460  15.9891540
  28.1284460  46.6813760  16.6334280  29.2993620  45.7293710  16.5129210
  24.3449480  45.1935380  17.8856840  24.7665900  45.0275250  18.7288230
  24.4700320  44.3835610  17.3911980  22.5076900  41.1731930  30.6927820
  21.9773360  40.6822880  30.0651160  23.1764970  41.6016130  30.1585750
  26.8577120  44.2172990  15.1333940  27.3782780  43.5022010  14.7675090
  27.5045520  44.8558860  15.4334450  22.9949200  38.1394300  30.7725110
  22.9006070  37.5215050  30.0475980  22.4146590  38.8660590  30.5455020
  25.7610640  36.6967540  27.8052500  25.3127940  36.7191800  26.9598050
  25.1275840  36.2986560  28.4022800  23.2408380  41.2668610  14.8315000
  23.0397440  40.4035970  15.1928340  23.0700430  41.1801970  13.8936600
  24.0177610  51.8974880  29.5422670  23.4798700  52.6220940  29.2231370
  24.2711570  51.4205220  28.7520010  25.2702860  39.8659400  31.0678600
  25.8602550  39.5575250  31.7556420  24.4523100  39.3939150  31.2238500
  22.0391180  38.3669230  14.8192880  22.3417080  38.3736660  13.9112030
  22.7785770  38.0167090  15.3160540  26.8739820  53.1326090  29.8009320
  26.7998520  54.0361230  30.1081690  25.9718660  52.8137990  29.7731390
  25.2576110  37.3103850  15.8049080  24.9098110  36.6327840  15.2251530
  25.4588880  36.8493360  16.6192470  27.4225150  52.2984600  17.4235680
  28.3175940  52.6369570  17.4454440  27.4542780  51.5764010  16.7959960
  21.0621310  47.6711650  15.6522680  21.4996180  48.2141320  16.3080260
  21.5469040  46.8458600  15.6619020  18.2767110  50.4600680  23.1042940
  18.6070120  49.5921740  22.8721580  18.7058110  50.6659200  23.9347900
  22.8729030  48.7909690  20.7644910  22.5724570  48.6674660  21.6648820
  22.7666520  47.9318280  20.3560640  18.7657320  51.3271270  25.8424570
  18.3288310  51.5072070  26.6748720  19.3335000  52.0845890  25.7006290
  34.4019500  50.8288270  30.1301880  33.8021490  50.8880830  29.3865800
  34.5313400  49.8893250  30.2598730  35.6420950  48.5706090  15.4671590
  34.8113910  48.6382740  15.9378820  35.8192780  49.4610210  15.1638450
  35.0977410  45.3153570  17.9705790  35.8596320  45.8850220  18.0765480
  35.1131780  44.7480770  18.7414100  18.5981750  43.8391500  22.2013450
  17.9430590  43.5703140  21.5573150  19.4359700  43.7295980  21.7515430
  36.1037380  46.1703670  22.8147720  36.4746210  45.3870990  22.4083690
  36.7439310  46.8592770  22.6365020  35.1496580  45.6087940  15.1278310
  35.4245420  46.5166820  14.9997530  34.9607320  45.5450470  16.0640300
  19.6357680  44.2244070  26.7416790  20.0030720  44.1371470  27.6212810
  19.0668500  43.4610620  26.6423650  17.8119830  41.0490430  18.1438780
  16.9083910  41.3120630  17.9690440  18.2960450  41.3201600  17.3638740
  20.3547040  40.1055970  16.0533160  21.0638740  39.6839190  15.5680440
  19.6386980  40.1731200  15.4216510  20.0021200  36.1595300  15.0935810
  20.7249330  36.7004240  15.4117030  20.2745720  35.8858720  14.2177350
  19.6913390  35.4101490  24.9958430  20.3389580  34.8598870  24.5553590
  20.1115230  35.6644640  25.8174240  33.1447190  52.3058850  21.7546310
  33.7406260  51.9843420  21.0780730  33.4025340  51.8330670  22.5459580
  19.4445390  35.5657160  27.7383750  19.0960210  36.0220980  28.5041930
  19.1133090  34.6714290  27.8206180  21.0509760  48.7376760  31.9036940
  21.0079390  48.3669670  32.7851400  21.1820770  49.6754330  32.0438760
  24.7515790  50.2936350  27.5046660  24.5107150  50.5610910  26.6177180
  25.6918430  50.4642080  27.5597520  36.0119950  52.3130730  28.3057300
  35.5178230  52.7099600  27.5884430  35.4033240  51.6879940  28.6994580
  20.8897790  51.6839010  29.0234720  20.2958110  51.5523710  29.7624760
  20.8821630  50.8477150  28.5576820  33.6959400  52.9554150  25.5844040
  33.2362370  53.7069960  25.2102060  33.0671860  52.2360620  25.5258840
  20.5210020  49.0497390  27.9742760  19.7944080  48.4302680  27.9068710
  20.5819170  49.4438000  27.1040840  24.1255120  51.2642390  24.7592170
  24.6420140  50.6529750  24.2340430  24.7752500  51.7671170  25.2503180
  26.8650620  52.1550880  25.5861150  27.1528430  51.9005180  24.7094160
  27.3773840  51.6028240  26.1766720  18.8040020  52.3671780  21.1839520
  18.6362060  51.7342460  21.8821410  17.9374530  52.5731180  20.8333710
  19.4268040  36.1988560  18.6871380  20.1847400  36.3117440  18.1135410
  18.9645210  37.0357760  18.6414810  25.9681850  38.3127830  21.6773690
  25.1556360  37.9384720  21.3369570  26.4723490  37.5572910  21.9794880
  20.4102720  51.0605010  18.6289660  19.8850340  51.4413040  17.9251620
  20.3347300  51.6855780  19.3499370  21.7993190  36.7252610  17.2273350
  22.3285950  35.9382410  17.0981300  22.4321510  37.4043800  17.4608880
  23.9931030  36.4627750  20.2818740  23.3633770  35.7615060  20.4488870
  23.4536170  37.2231880  20.0651900  26.9322980  53.0766980  32.9529350
  27.8590290  52.8411250  32.9965310  26.9173410  53.9038980  32.4715380
  35.1668040  52.6192550  19.9503600  35.3420230  51.9330290  19.3064520
  34.4689610  53.1439600  19.5580270  23.0095690  53.0087390  17.5038910
  23.7414510  52.7246670  16.9562800  23.2689360  52.7700670  18.3938290
  22.1710480  49.1252120  17.5085240  21.5419360  49.5937220  18.0571070
  22.2858310  48.2801340  17.9431430  33.5000540  52.3036840  32.7770390
  34.2925860  51.8086070  32.5696350  33.7933690  52.9826980  33.3846000
  29.6260200  43.1757780   3.6586440  29.5454250  42.2612390   3.3878150
  29.2124620  43.6724850   2.9526150  27.7578240  44.9536800   5.5395710
  26.9820340  44.4737240   5.8294280  28.4091170  44.2742450   5.3651870
  21.7744070  45.2656610   6.4171470  20.9428950  45.0105320   6.8167980
  22.3825050  45.3367380   7.1529390  31.7785670  49.3596990   4.3194840
  31.3167200  48.5884230   4.6482010  32.5911220  49.3863060   4.8247290
  21.7545330  49.2996700   6.6129490  22.0573370  48.4094440   6.4339710
  22.4988920  49.8566920   6.3851740  18.1469030  42.8264150   6.0853560
  18.7185140  42.0586350   6.0857200  18.1470570  43.1252910   5.1760170
  28.0048980  51.6455000   3.9398830  27.3860420  52.1012500   3.3693270
  28.8600760  51.8006460   3.5388530  27.1987230  47.6293990   5.5465870
  27.1295510  46.6883930   5.3855000  27.9607090  47.7195400   6.1188440
  19.3893900  38.2348510   7.8722490  19.2096740  37.3374260   8.1525250
  18.9873980  38.7820380   8.5469440  28.2292400  40.4364370   5.7734800
  28.6057220  39.5636250   5.6608470  28.1311910  40.7723070   4.8825240
  32.0116520  37.9314810   2.7063140  32.8326140  37.4411380   2.7488620
  32.0450600  38.5212470   3.4594980  20.0080570  40.7309010   6.4804830
  20.6890680  40.9947380   7.0992230  19.6928620  39.8909880   6.8142840
  24.2005140  41.7776370   5.5677420  24.7083360  42.2757340   6.2082440
  24.7318380  41.0011570   5.3916780  36.3016070  39.9481560   9.2706770
  35.5968240  40.3363270   8.7521880  36.5673990  40.6431850   9.8727700
  22.4841240  36.4174930   9.8340840  22.4859680  36.9347320   9.0286740
  21.6545550  35.9405110   9.8110770  23.7344090  46.0570110   8.0114340
  23.4013470  46.6839030   8.6535410  23.9110770  46.5831990   7.2316010
  32.2478000  39.8715190   5.4790680  31.5433570  40.1600080   6.0593790
  32.6090160  40.6815300   5.1190240  22.1656570  38.1284890   7.8411290
  22.5073380  38.9726940   7.5465160  21.2272380  38.2768630   7.9576630
  22.9463190  48.0250910   9.8263520  23.5637190  48.7001990   9.5447970
  22.0856310  48.4338890   9.7351020  33.8640780  49.4890320   7.7418160
  33.1804300  50.1589430   7.7334830  34.4035070  49.6870970   6.9763020
  35.3164920  39.3169980   5.8699890  34.3689830  39.3508960   6.0015320
  35.6414910  40.1308930   6.2549250  25.8484460  35.6167160   4.1655880
  26.1559440  35.0614050   3.4491380  24.9185160  35.7511620   3.9828870
  31.3999520  51.3334450   6.4563340  31.4126680  50.9296740   5.5885600
  30.8474740  52.1081740   6.3524770  30.7984960  46.2364290   7.7845950
  31.2153750  46.0224400   6.9499410  31.5224780  46.4937080   8.3554570
  34.7447060  44.6351510   7.8762190  33.9165690  44.7044600   7.4012320
  35.3397540  45.2205820   7.4078020  31.7089070  41.4220830   8.8217060
  31.2960250  42.2474540   9.0757050  30.9765020  40.8365870   8.6293420
  23.8421860  44.2080730   3.6835730  23.4378860  43.4957980   3.1881630
  23.9284980  43.8633970   4.5723770  24.3103560  47.8948290   5.8474940
  24.0131850  47.2893760   5.1682720  25.2603380  47.9325600   5.7364300
  22.5550480  40.9823940   7.4634770  23.1065070  41.0919280   6.6888020
  23.0693990  41.3561540   8.1790000  32.3989170  51.4680160   9.5098040
  31.9219730  52.2752350   9.3170650  31.7150960  50.8158490   9.6624250
  23.4021990  47.6329980  12.4982740  22.5050520  47.8569950  12.7456140
  23.4274860  47.7564920  11.5494140  22.2293210  44.5043300  11.0740110
  22.0900980  45.3766100  11.4427510  21.3474570  44.1616110  10.9288050
  28.5522590  49.4219170   2.3805240  28.9918500  50.1643500   1.9660630
  28.4909480  49.6645740   3.3044200  24.0273560  50.4465000  13.2825260
  23.9988990  50.8507950  12.4153690  23.8638530  49.5175360  13.1196860
  35.9788380  51.2292100  14.5789430  36.4548100  51.7074990  15.2578510
  36.5995540  51.1609590  13.8534930  18.1811860  46.2740850   6.9911020
  18.2592280  46.4089620   6.0466740  18.7953540  45.5656740   7.1839140
  19.4259490  47.9741040   3.4017200  19.0187570  48.1155630   2.5470800
  20.3172500  47.6901200   3.1988410  35.3821630  48.4204950  11.7389440
  35.5084690  48.1816830  10.8206620  35.4243010  47.5889490  12.2111520
  29.2438370  52.1232950  10.3084250  29.7583040  52.0340960  11.1106680
  28.4007450  52.4692650  10.6012160  30.4868830  51.5438560   2.3714740
  30.9425780  50.7627940   2.6853360  30.8261350  52.2545380   2.9155920
  35.2345640  40.4737410  12.7039180  34.6189910  40.9817080  12.1754640
  34.9142060  39.5735740  12.6465120  18.2371380  47.3155020   9.5305480
  18.4002420  46.8460380   8.7124850  18.7023830  46.8078580  10.1954320
  23.0090150  36.4460780   4.5666050  22.5658300  37.2270320   4.2350570
  23.5675140  36.7690670   5.2736990  27.2959960  39.3129300  10.1701370
  26.8339330  39.5212320  10.9821310  26.8938070  38.4988650   9.8672040
  32.2964470  40.5338250  11.2998030  31.4458060  40.2344000  11.6207100
  32.1366260  40.7780260  10.3881850  29.3914180  42.0340000  13.3996820
  29.7167590  41.2003750  13.0599050  30.1794510  42.5568520  13.5475150
  25.0466050  36.9908110   6.4255650  25.3438380  37.8970940   6.3447670
  25.5951610  36.5026890   5.8115220  22.8004370  41.5694350   2.2947300
  22.5745290  41.3531520   3.1993920  22.0196900  42.0022810   1.9493270
  25.2403580  42.4679930  12.9607570  25.1447180  41.5274660  12.8107970
  26.0835560  42.6895000  12.5655640  28.6367000  40.2121260   2.9241230
  29.0296570  40.5293460   2.1109920  28.9983850  39.3333140   3.0385750
  20.3714120  38.8793600  11.1141350  19.9777510  39.7268810  11.3214130
  19.6832520  38.2419970  11.3049990  26.9459170  38.9628570  14.1838090
  26.2557490  38.7700770  14.8184180  27.6891470  39.2463210  14.7162390
  17.6731170  36.8022060   5.1471430  17.3844220  37.3724920   5.8596410
  18.4176930  36.3226510   5.5102660  29.2222140  42.8027010   7.0192010
  28.4903260  43.3113820   7.3682110  28.8246480  41.9856990   6.7180790
  25.6599530  39.4781210   5.4244500  25.6635590  39.0371160   4.5749040
  26.5550650  39.7998540   5.5316320  21.5101910  39.3607700   4.3838710
  21.1701960  39.8382930   5.1405760  20.7479230  38.9072820   4.0239810
  29.6848050  38.2560690   6.4314950  29.7020790  38.7069340   7.2756800
  29.4363630  37.3566330   6.6448390  19.8110360  46.6906450  11.6901290
  19.4265150  46.0500120  12.2884250  20.1222550  47.3942570  12.2596020
  25.9607500  43.5382990   7.1709910  26.3277630  43.0641560   7.9171250
  25.7712560  44.4124560   7.5118250  18.8247990  38.2826680   3.3003380
  18.5394910  37.9182350   4.1382000  18.7626850  37.5507140   2.6866520
  23.7506870  42.5791630   9.4894120  23.4463940  43.4583610   9.7144480
  24.7053330  42.6391420   9.5251560  33.0376640  45.7817980   5.8787360
  33.7575760  46.2773270   5.4883470  32.8358460  45.1035870   5.2341230
  28.4195440  45.8527040  11.7656360  28.3532750  44.9322710  11.5113950
  27.7900580  45.9502480  12.4801000  22.3226060  46.4533000   3.7239780
  22.8404730  45.6501260   3.6696670  21.8710080  46.3912140   4.5656610
  19.8070600  43.4194370  10.6365480  19.4485540  44.0848220  11.2238820
  19.5125160  42.5877920  11.0078100  23.0083720  43.8778610  13.5205030
  22.7083860  44.0235790  12.6232850  23.7794960  43.3183900  13.4278420
  28.3512170  48.6747610  11.5160160  28.3656710  47.7428570  11.2979070
  27.6437270  48.7607370  12.1549930  34.5623380  45.3154950  10.8628740
  33.8371570  45.9083730  10.6658130  35.0898840  45.3078490  10.0642110
  30.0922970  47.0415120   4.3612590  30.4446790  46.4443250   3.7013960
  29.2085300  46.7159350   4.5320840  26.1786250  47.8012810   1.7683000
  26.8657380  48.3482020   2.1490590  25.3918670  48.3453540   1.8032610
  27.7846070  50.3165180   8.6100660  28.4288290  50.5224560   9.2874080
  28.1475510  49.5553580   8.1571510  29.0578150  48.3197530   7.3278110
  29.7000380  47.6190690   7.4410280  29.5827500  49.0995970   7.1475000
  30.8315770  49.1192430  10.5314170  31.1672010  49.7059120  11.2092090
  29.9116110  48.9885140  10.7611960  18.3819170  36.9087610  11.3137580
  17.6677690  37.1084530  11.9190190  18.8014210  36.1327180  11.6852380
  18.6691760  50.8967870  12.3004110  18.7782880  49.9562610  12.1599500
  18.0172320  51.1622620  11.6517840  26.6604350  49.1683760  13.7002230
  26.3401220  48.4493000  14.2447920  25.9862710  49.8438830  13.7738290
  29.8757950  39.4009920   9.0639030  30.2438770  38.5805130   9.3918600
  29.0156150  39.4611810   9.4794680  26.8359940  42.0549510   9.2877000
  27.3345190  42.5295330   9.9528850  26.9782890  41.1313030   9.4947030
  29.2419440  37.3603470   2.7280260  29.1187220  37.3789600   1.7789770
  30.1904000  37.4082410   2.8478660  34.0426800  38.2717470  10.1305390
  33.5400400  39.0122870  10.4699200  34.8583460  38.6601470   9.8142180
  32.3348810  43.5150650   3.5766750  31.3938950  43.5300880   3.7514440
  32.6492880  42.7286610   4.0227050  34.3374390  50.6859500   5.2521010
  34.4621810  51.5090670   5.7244820  35.2039950  50.4750230   4.9045160
  21.8091920  52.7790710   4.9238140  22.5454400  52.2306170   5.1946710
  22.1932840  53.6446720   4.7844130  20.8150200  51.9636780  14.1123720
  21.6162930  52.2848830  14.5259120  20.3002020  51.6032360  14.8343630
  29.6514830  48.0716650  14.0599130  29.0452990  48.0948250  13.3194880
  29.3468940  47.3399690  14.5966380  31.0815200  51.7996940  12.6708540
  32.0336950  51.7154960  12.6208780  30.9343420  52.4638650  13.3442330
  18.5348010  44.4510240  13.0559770  19.0387030  43.8717520  13.6276000
  17.7955430  44.7350470  13.5936140  25.5885950  45.8581230  12.5895290
  24.8231620  46.4266230  12.5049960  25.7701910  45.5657440  11.6963520
  32.7309300  47.5886560  13.1470310  33.4718770  47.9262320  12.6437770
  31.9681980  47.7578620  12.5940080  20.5671090  42.5939830  13.9509840
  20.6076430  42.2953700  14.8595070  21.4216590  42.9947440  13.7917360
  22.5076900  41.1731930  11.9184330  21.9773360  40.6822880  11.2907670
  23.1764970  41.6016130  11.3842260  31.4054960  45.6401390  11.6825520
  31.8195980  45.7946470  12.5315940  30.4705960  45.7656610  11.8451300
  31.8777130  42.9797550  13.6864670  32.4597900  42.2249870  13.5985150
  32.0538900  43.5104990  12.9096150  22.9949200  38.1394300  11.9981620
  22.9006070  37.5215050  11.2732490  22.4146590  38.8660590  11.7711530
  25.7610640  36.6967540   9.0309010  25.3127940  36.7191800   8.1854560
  25.1275840  36.2986560   9.6279310  26.1670190  45.5921870   9.6521450
  26.5858300  46.4354600   9.4797690  25.2478820  45.7293910   9.4228230
  28.5034090  43.3238050  11.0359290  28.6230300  42.7279190  11.7754130
  29.3628090  43.3607740  10.6160590  30.8421990  43.8775240   9.6121800
  30.3157210  44.4017860   9.0086940  31.1853330  44.5102630  10.2431530
  24.0177610  51.8974880  10.7679180  23.4798700  52.6220940  10.4487880
  24.2711570  51.4205220   9.9776520  25.2702860  39.8659400  12.2935110
  25.8602550  39.5575250  12.9812930  24.4523100  39.3939150  12.4495010
  30.0896290  39.4825210  12.5268130  29.4011810  38.8206750  12.4618120
  30.8102310  39.0363480  12.9716590  26.8739820  53.1326090  11.0265830
  26.7998520  54.0361230  11.3338200  25.9718660  52.8137990  10.9987900
  18.2767110  50.4600680   4.3299450  18.6070120  49.5921740   4.0978090
  18.7058110  50.6659200   5.1604410  18.7657320  51.3271270   7.0681080
  18.3288310  51.5072070   7.9005230  19.3335000  52.0845890   6.9262800
  34.4019500  50.8288270  11.3558390  33.8021490  50.8880830  10.6122310
  34.5313400  49.8893250  11.4855240  18.5981750  43.8391500   3.4269960
  17.9430590  43.5703140   2.7829660  19.4359700  43.7295980   2.9771940
  36.1037380  46.1703670   4.0404230  36.4746210  45.3870990   3.6340200
  36.7439310  46.8592770   3.8621530  33.0871140  47.5540250   9.4534550
  32.2730980  47.9837410   9.7160340  33.4945340  48.1658660   8.8403600
  19.6357680  44.2244070   7.9673300  20.0030720  44.1371470   8.8469320
  19.0668500  43.4610620   7.8680160  34.4361540  42.6928450  10.9803770
  34.2047630  42.4641200  10.0801720  34.6966090  43.6128000  10.9348660
  19.1873680  41.1353160  11.8731720  18.2929730  41.1019920  12.2125430
  19.7271230  41.3339950  12.6382970  34.3212880  41.7714420   4.6471490
  34.8450360  41.2777070   4.0161660  34.9072300  41.9064780   5.3919060
  34.5002600  41.8554290   8.1691040  33.5505310  41.8217830   8.2836030
  34.6815610  42.7654400   7.9340810  19.6913390  35.4101490   6.2214940
  20.3389580  34.8598870   5.7810100  20.1115230  35.6644640   7.0430750
  35.2400010  39.6648720   3.1201580  35.1299290  39.5104760   4.0583850
  36.0007600  39.1369660   2.8776990  33.5865730  35.6042850   9.5784580
  34.2237950  36.2176990   9.9443770  33.7340620  35.6403510   8.6333810
  33.1447190  52.3058850   2.9802820  33.7406260  51.9843420   2.3037240
  33.4025340  51.8330670   3.7716090  19.4445390  35.5657160   8.9640260
  19.0960210  36.0220980   9.7298440  19.1133090  34.6714290   9.0462690
  21.0509760  48.7376760  13.1293450  21.0079390  48.3669670  14.0107910
  21.1820770  49.6754330  13.2695270  24.7515790  50.2936350   8.7303170
  24.5107150  50.5610910   7.8433690  25.6918430  50.4642080   8.7854030
  26.9570210  36.7569040  12.4859680  26.8959100  37.3490870  13.2355090
  27.8970590  36.6495000  12.3409940  29.5944770  36.4139100  12.1251970
  30.2085180  36.7318390  11.4633050  30.1394330  35.9287690  12.7447830
  36.0119950  52.3130730   9.5313810  35.5178230  52.7099600   8.8140940
  35.4033240  51.6879940   9.9251090  20.1166030  35.0933360  12.2391030
  20.6649020  34.9121410  11.4757140  20.1821340  34.3027470  12.7747340
  20.8897790  51.6839010  10.2491230  20.2958110  51.5523710  10.9881270
  20.8821630  50.8477150   9.7833330  30.3352810  34.9771240   8.4521260
  29.4612650  35.3106350   8.2494190  30.2263560  34.5044420   9.2773130
  31.2424790  37.1842110   9.8362980  30.9138150  36.3693870   9.4564710
  32.1907090  37.1411920   9.7128670  33.6959400  52.9554150   6.8100550
  33.2362370  53.7069960   6.4358570  33.0671860  52.2360620   6.7515350
  20.5210020  49.0497390   9.1999270  19.7944080  48.4302680   9.1325220
  20.5819170  49.4438000   8.3297350  24.1255120  51.2642390   5.9848680
  24.6420140  50.6529750   5.4596940  24.7752500  51.7671170   6.4759690
  26.8650620  52.1550880   6.8117660  27.1528430  51.9005180   5.9350670
  27.3773840  51.6028240   7.4023230  28.0827630  35.8941080   7.3914170
  27.2999420  36.3686580   7.6710930  27.7890560  34.9895910   7.2827350
  32.6348700  36.5964180   5.4363260  33.0756790  36.5409280   4.5884860
  32.3656290  37.5122190   5.5073440  34.4987270  36.2279420   3.4472080
  34.4375670  35.2840640   3.3003100  35.2779300  36.3359510   3.9925540
  18.8040020  52.3671780   2.4096030  18.6362060  51.7342460   3.1077920
  17.9374530  52.5731180   2.0590220  25.9681850  38.3127830   2.9030200
  25.1556360  37.9384720   2.5626080  26.4723490  37.5572910   3.2051390
  30.4706830  34.9770280   4.1413270  31.0736200  35.5490490   4.6161790
  29.7299820  35.5409720   3.9187170  26.9322980  53.0766980  14.1785860
  27.8590290  52.8411250  14.2221820  26.9173410  53.9038980  13.6971890
  24.1186590  35.7411730  13.9427740  23.8370860  36.2445330  13.1788560
  24.5006290  34.9433480  13.5769870  33.5000540  52.3036840  14.0026900
  34.2925860  51.8086070  13.7952860  33.7933690  52.9826980  14.6102510
  29.6260200  24.4014290  78.7560400  29.5454250  23.4868900  78.4852110
  29.2124620  24.8981360  78.0500110  27.7578240  26.1793310  80.6369670
  26.9820340  25.6993750  80.9268240  28.4091170  25.4998960  80.4625830
  21.7744070  26.4913120  81.5145430  20.9428950  26.2361830  81.9141940
  22.3825050  26.5623890  82.2503350  31.7785670  30.5853500  79.4168800
  31.3167200  29.8140740  79.7455970  32.5911220  30.6119570  79.9221250
  21.7545330  30.5253210  81.7103450  22.0573370  29.6350950  81.5313670
  22.4988920  31.0823430  81.4825700  20.1836020  21.4515010  75.2987820
  19.2952720  21.7930980  75.1967700  20.4677210  21.2515330  74.4068650
  18.1469030  24.0520660  81.1827520  18.7185140  23.2842860  81.1831160
  18.1470570  24.3509420  80.2734130  28.0048980  32.8711510  79.0372790
  27.3860420  33.3269010  78.4667230  28.8600760  33.0262970  78.6362490
  27.1987230  28.8550500  80.6439830  27.1295510  27.9140440  80.4828960
  27.9607090  28.9451910  81.2162400  19.3893900  19.4605020  82.9696450
  19.2096740  18.5630770  83.2499210  18.9873980  20.0076890  83.6443400
  28.2292400  21.6620880  80.8708760  28.6057220  20.7892760  80.7582430
  28.1311910  21.9979580  79.9799200  22.3597410  20.0346510  76.3326200
  22.4664160  20.9350240  76.6394960  21.4489770  19.9864480  76.0420850
  32.0116520  19.1571320  77.8037100  32.8326140  18.6667890  77.8462580
  32.0450600  19.7468980  78.5568940  20.0080570  21.9565520  81.5778790
  20.6890680  22.2203890  82.1966190  19.6928620  21.1166390  81.9116800
  24.2005140  23.0032880  80.6651380  24.7083360  23.5013850  81.3056400
  24.7318380  22.2268080  80.4890740  28.8712330  27.7550750  76.4304700
  28.2529600  28.2200200  75.8667420  29.3835580  28.4478230  76.8474210
  23.7344090  27.2826620  83.1088300  23.4013470  27.9095540  83.7509370
  23.9110770  27.8088500  82.3289970  32.2478000  21.0971700  80.5764640
  31.5433570  21.3856590  81.1567750  32.6090160  21.9071810  80.2164200
  22.1656570  19.3541400  82.9385250  22.5073380  20.1983450  82.6439120
  21.2272380  19.5025140  83.0550590  18.2395530  28.4407280  73.8044330
  17.8623510  28.9294380  73.0729230  18.4968600  29.1132560  74.4350860
  33.8640780  30.7146830  82.8392120  33.1804300  31.3845940  82.8308790
  34.4035070  30.9127480  82.0736980  35.3164920  20.5426490  80.9673850
  34.3689830  20.5765470  81.0989280  35.6414910  21.3565440  81.3523210
  25.8484460  16.8423670  79.2629840  26.1559440  16.2870560  78.5465340
  24.9185160  16.9768130  79.0802830  31.3999520  32.5590960  81.5537300
  31.4126680  32.1553250  80.6859560  30.8474740  33.3338250  81.4498730
  32.6944940  29.2807180  76.6427470  32.5841270  28.3381510  76.7676890
  32.6913190  29.6422820  77.5290230  30.7984960  27.4620800  82.8819910
  31.2153750  27.2480910  82.0473370  31.5224780  27.7193590  83.4528530
  28.2365220  24.9072500  75.9989960  27.3094500  24.8409880  76.2278430
  28.3890040  25.8452630  75.8845200  28.2234300  21.1789500  72.9957120
  27.2837970  21.3403460  73.0809580  28.5417560  21.8975180  72.4493110
  34.7447060  25.8608020  82.9736150  33.9165690  25.9301110  82.4986280
  35.3397540  26.4462330  82.5051980  32.2662510  26.4692800  76.5025210
  31.6474930  26.1312350  75.8551510  32.2486960  25.8252560  77.2104400
  23.8421860  25.4337240  78.7809690  23.4378860  24.7214490  78.2855590
  23.9284980  25.0890480  79.6697730  24.3103560  29.1204800  80.9448900
  24.0131850  28.5150270  80.2656680  25.2603380  29.1582110  80.8338260
  22.5550480  22.2080450  82.5608730  23.1065070  22.3175790  81.7861980
  23.0693990  22.5818050  83.2763960  30.4427210  25.7079610  73.5097960
  30.8820490  24.8702040  73.3635780  31.1555630  26.3409010  73.5962100
  28.5522590  30.6475680  77.4779200  28.9918500  31.3900010  77.0634590
  28.4909480  30.8902250  78.4018160  34.0244350  16.9622420  71.8239000
  33.7117010  17.0549250  72.7238070  34.7856820  17.5403450  71.7736430
  20.5426490  24.3282220  76.2816340  20.4224090  25.0544310  75.6697610
  20.2327380  23.5585130  75.8044250  18.1811860  27.4997360  82.0884980
  18.2592280  27.6346130  81.1440700  18.7953540  26.7913250  82.2813100
  19.4259490  29.1997550  78.4991160  19.0187570  29.3412140  77.6444760
  20.3172500  28.9157710  78.2962370  31.2192770  33.6344800  74.8342210
  31.0593910  33.3447740  75.7324040  31.0539480  32.8584930  74.2987440
  23.6981150  33.4143330  76.6113830  23.5223630  32.4978870  76.3981630
  22.8436890  33.7730620  76.8511630  30.9218900  31.1432360  73.3940210
  30.2284060  31.1409650  72.7342490  31.6641760  30.7191680  72.9634380
  30.4868830  32.7695070  77.4688700  30.9425780  31.9884450  77.7827320
  30.8261350  33.4801890  78.0129880  23.0090150  17.6717290  79.6640010
  22.5658300  18.4526830  79.3324530  23.5675140  17.9947180  80.3710950
  26.1248970  17.2927990  74.5445840  25.5003150  17.2887860  75.2699150
  26.0379090  16.4258950  74.1481810  25.0466050  18.2164620  81.5229610
  25.3438380  19.1227450  81.4421630  25.5951610  17.7283400  80.9089180
  22.8004370  22.7950860  77.3921260  22.5745290  22.5788030  78.2967880
  22.0196900  23.2279320  77.0467230  30.0302130  22.8014230  75.9911910
  29.4311020  23.5250030  75.8075530  30.5781740  22.7391010  75.2088360
  28.6367000  21.4377770  78.0215190  29.0296570  21.7549970  77.2083880
  28.9983850  20.5589650  78.1359710  17.6731170  18.0278570  80.2445390
  17.3844220  18.5981430  80.9570370  18.4176930  17.5483020  80.6076620
  17.8601400  21.9698690  71.4548110  17.7776070  22.9129450  71.5963100
  17.5084460  21.8273600  70.5760460  29.2222140  24.0283520  82.1165970
  28.4903260  24.5370330  82.4656070  28.8246480  23.2113500  81.8154750
  25.6599530  20.7037720  80.5218460  25.6635590  20.2627670  79.6723000
  26.5550650  21.0255050  80.6290280  21.5101910  20.5864210  79.4812670
  21.1701960  21.0639440  80.2379720  20.7479230  20.1329330  79.1213770
  25.7219680  21.7049800  73.5125220  25.8432500  21.6636280  74.4611040
  25.3368190  22.5673950  73.3571950  29.6848050  19.4817200  81.5288910
  29.7020790  19.9325850  82.3730760  29.4363630  18.5822840  81.7422350
  24.7341180  24.0150940  72.9108520  24.1658080  23.5669190  72.2844430
  25.4430180  24.3743720  72.3773670  25.9607500  24.7639500  82.2683870
  26.3277630  24.2898070  83.0145210  25.7712560  25.6381070  82.6092210
  18.8247990  19.5083190  78.3977340  18.5394910  19.1438860  79.2355960
  18.7626850  18.7763650  77.7840480  22.2788660  28.0109130  75.1834930
  21.5050920  27.4706750  75.0233650  23.0083290  27.4915740  74.8452690
  33.0376640  27.0074490  80.9761320  33.7575760  27.5029780  80.5857430
  32.8358460  26.3292380  80.3315190  28.4986580  18.4012450  75.1190710
  27.6851190  17.9025620  75.0436020  28.3048530  19.2410700  74.7027060
  31.2134970  22.7732100  73.4152870  32.1014590  23.0849330  73.2404210
  31.1840060  21.9004350  73.0233450  22.3226060  27.6789510  78.8213740
  22.8404730  26.8757770  78.7670630  21.8710080  27.6168650  79.6630570
  27.2095560  28.9455790  74.0941040  27.5511260  29.6898020  73.5984360
  26.3808270  29.2586910  74.4565870  33.4849240  24.0843940  72.8832730
  33.4012960  24.5158160  72.0329170  34.2043430  24.5442290  73.3159550
  34.5136490  30.9386200  75.6114860  33.8712650  30.2841820  75.8858580
  34.1267150  31.3441290  74.8355530  30.0922970  28.2671630  79.4586550
  30.4446790  27.6699760  78.7987920  29.2085300  27.9415860  79.6294800
  26.1786250  29.0269320  76.8656960  26.8657380  29.5738530  77.2464550
  25.3918670  29.5710050  76.9006570  18.3178650  24.6442140  72.3574040
  19.1873500  24.9266940  72.6409960  17.8268970  25.4578010  72.2422850
  25.4813460  26.0315350  76.4782320  25.9376240  26.8420600  76.7042510
  25.1301670  25.7138490  77.3100810  21.3825240  16.3753000  76.9504840
  21.2539870  16.3670900  77.8989760  20.5587260  16.7136090  76.5995850
  29.0578150  29.5454040  82.4252070  29.7000380  28.8447200  82.5384240
  29.5827500  30.3252480  82.2448960  32.9033870  29.8302660  72.1491210
  32.6771450  29.1133100  72.7415850  32.5130070  29.5815100  71.3112960
  18.6849900  33.8569520  72.9235670  19.0447540  34.4558860  72.2692940
  18.5442240  34.4029410  73.6970700  32.4850120  27.7474600  73.8105370
  32.1971820  28.2087290  74.5983250  33.2802290  27.2872370  74.0789590
  24.7018520  31.2400720  73.7409340  24.6928620  31.9730410  73.1253850
  23.7816880  30.9932300  73.8336300  20.3025160  26.4615610  74.4856100
  19.6953110  27.2014510  74.4951400  20.7774510  26.5514970  73.6594300
  33.2419980  19.5823370  74.9700550  32.6133140  19.6869040  74.2558780
  32.7471900  19.8020150  75.7594430  27.6878120  31.3028960  72.4034530
  27.7890100  31.0992950  71.4736510  26.7879860  31.0487240  72.6082310
  25.2104010  21.8609320  76.3858430  24.5020160  22.3295660  76.8272040
  25.4948490  21.2031330  77.0203620  29.2419440  18.5859980  77.8254220
  29.1187220  18.6046110  76.8763730  30.1904000  18.6338920  77.9452620
  26.3296230  33.8215280  77.0982200  26.5837730  33.7836670  76.1761570
  25.3808710  33.6948610  77.0910450  23.4139030  20.1694400  73.7609140
  24.2629560  20.6064550  73.6949330  23.0470300  20.4814660  74.5881200
  32.3348810  24.7407160  78.6740710  31.3938950  24.7557390  78.8488400
  32.6492880  23.9543120  79.1201010  22.3130450  26.4226760  72.2344670
  23.0793720  26.3108120  72.7970100  22.3905140  25.7264730  71.5821440
  21.0077210  23.8551830  72.9177560  21.0880800  22.9079340  73.0294960
  21.8996960  24.1858710  73.0238220  34.3374390  31.9116010  80.3494970
  34.4621810  32.7347180  80.8218780  35.2039950  31.7006740  80.0019120
  21.8091920  34.0047220  80.0212100  22.5454400  33.4562680  80.2920670
  22.1932840  34.8703230  79.8818090  18.6937400  30.0720790  75.8953610
  17.7677180  30.3141930  75.8859020  19.1593830  30.8995050  75.7738360
  24.9194230  33.1777530  71.8437670  25.7122840  33.4666360  71.3919460
  24.3998580  32.7469700  71.1650150  33.9724400  32.4047660  73.2674410
  33.6865910  31.9912800  72.4528590  33.7743950  33.3335370  73.1474930
  25.4371630  28.3980940  71.7080020  25.3322270  27.7833290  72.4341400
  25.2695850  27.8746830  70.9243030  28.6774360  27.4600970  72.3122010
  28.1284460  27.9070270  72.9564750  29.2993620  26.9550220  72.8359680
  24.3449480  26.4191890  74.2087310  24.7665900  26.2531760  75.0518700
  24.4700320  25.6092120  73.7142450  26.8577120  25.4429500  71.4564410
  27.3782780  24.7278520  71.0905560  27.5045520  26.0815370  71.7564920
  23.2408380  22.4925120  71.1545470  23.0397440  21.6292480  71.5158810
  23.0700430  22.4058480  70.2167070  30.7196690  17.3033350  73.6832350
  30.9998980  16.4601250  74.0391770  29.9462420  17.5356460  74.1971100
  22.0391180  19.5925740  71.1423350  22.3417080  19.5993170  70.2342500
  22.7785770  19.2423600  71.6391010  25.2576110  18.5360360  72.1279550
  24.9098110  17.8584350  71.5482000  25.4588880  18.0749870  72.9422940
  27.4225150  33.5241110  73.7466150  28.3175940  33.8626080  73.7684910
  27.4542780  32.8020520  73.1190430  18.2767110  31.6857190  79.4273410
  18.6070120  30.8178250  79.1952050  18.7058110  31.8915710  80.2578370
  22.8729030  30.0166200  77.0875380  22.5724570  29.8931170  77.9879290
  22.7666520  29.1574790  76.6791110  18.7657320  32.5527780  82.1655040
  18.3288310  32.7328580  82.9979190  19.3335000  33.3102400  82.0236760
  35.6420950  29.7962600  71.7902060  34.8113910  29.8639250  72.2609290
  35.8192780  30.6866720  71.4868920  35.0977410  26.5410080  74.2936260
  35.8596320  27.1106730  74.3995950  35.1131780  25.9737280  75.0644570
  18.5981750  25.0648010  78.5243920  17.9430590  24.7959650  77.8803620
  19.4359700  24.9552490  78.0745900  36.1037380  27.3960180  79.1378190
  36.4746210  26.6127500  78.7314160  36.7439310  28.0849280  78.9595490
  35.1496580  26.8344450  71.4508780  35.4245420  27.7423330  71.3228000
  34.9607320  26.7706980  72.3870770  31.5472190  19.8589300  72.7462410
  31.9657070  19.6720280  71.9059070  31.2408250  19.0068350  73.0565340
  35.0461920  24.7713440  76.4438210  34.6705520  24.0041370  76.0119500
  34.3165040  25.1536140  76.9313140  17.8119830  22.2746940  74.4669250
  16.9083910  22.5377140  74.2920910  18.2960450  22.5458110  73.6869210
  34.3212880  22.9970930  79.7445450  34.8450360  22.5033580  79.1135620
  34.9072300  23.1321290  80.4893020  34.5002600  23.0810800  83.2665000
  33.5505310  23.0474340  83.3809990  34.6815610  23.9910910  83.0314770
  20.3547040  21.3312480  72.3763630  21.0638740  20.9095700  71.8910910
  19.6386980  21.3987710  71.7446980  20.0021200  17.3851810  71.4166280
  20.7249330  17.9260750  71.7347500  20.2745720  17.1115230  70.5407820
  33.8112850  22.2544280  75.6837860  34.3071970  22.0215150  76.4686740
  33.6128920  21.4156120  75.2675500  19.6913390  16.6358000  81.3188900
  20.3389580  16.0855380  80.8784060  20.1115230  16.8901150  82.1404710
  35.2400010  20.8905230  78.2175540  35.1299290  20.7361270  79.1557810
  36.0007600  20.3626170  77.9750950  36.1290280  18.7213150  71.4581680
  37.0539590  18.5894330  71.2499970  36.1066070  18.8005970  72.4118130
  36.2028770  19.4923810  74.0838390  35.4080270  19.4268930  74.6131300
  36.4072050  20.4274450  74.0723740  33.1447190  33.5315360  78.0776780
  33.7406260  33.2099930  77.4011200  33.4025340  33.0587180  78.8690050
  33.6959400  34.1810660  81.9074510  33.2362370  34.9326470  81.5332530
  33.0671860  33.4617130  81.8489310  24.1255120  32.4898900  81.0822640
  24.6420140  31.8786260  80.5570900  24.7752500  32.9927680  81.5733650
  26.8650620  33.3807390  81.9091620  27.1528430  33.1261690  81.0324630
  27.3773840  32.8284750  82.4997190  28.0827630  17.1197590  82.4888130
  27.2999420  17.5943090  82.7684890  27.7890560  16.2152420  82.3801310
  32.6348700  17.8220690  80.5337220  33.0756790  17.7665790  79.6858820
  32.3656290  18.7378700  80.6047400  34.4987270  17.4535930  78.5446040
  34.4375670  16.5097150  78.3977060  35.2779300  17.5616020  79.0899500
  18.8040020  33.5928290  77.5069990  18.6362060  32.9598970  78.2051880
  17.9374530  33.7987690  77.1564180  19.4268040  17.4245070  75.0101850
  20.1847400  17.5373950  74.4365880  18.9645210  18.2614270  74.9645280
  25.9681850  19.5384340  78.0004160  25.1556360  19.1641230  77.6600040
  26.4723490  18.7829420  78.3025350  30.4706830  16.2026790  79.2387230
  31.0736200  16.7747000  79.7135750  29.7299820  16.7666230  79.0161130
  33.6141430  16.6048350  74.5127510  33.8092060  17.5031800  74.7794940
  32.8271300  16.3735430  75.0060460  20.4102720  32.2861520  74.9520130
  19.8850340  32.6669550  74.2482090  20.3347300  32.9112290  75.6729840
  21.7993190  17.9509120  73.5503820  22.3285950  17.1638920  73.4211770
  22.4321510  18.6300310  73.7839350  23.9931030  17.6884260  76.6049210
  23.3633770  16.9871570  76.7719340  23.4536170  18.4488390  76.3882370
  35.1668040  33.8449060  76.2734070  35.3420230  33.1586800  75.6294990
  34.4689610  34.3696110  75.8810740  23.0095690  34.2343900  73.8269380
  23.7414510  33.9503180  73.2793270  23.2689360  33.9957180  74.7168760
  22.1710480  30.3508630  73.8315710  21.5419360  30.8193730  74.3801540
  22.2858310  29.5057850  74.2661900  19.3893900  19.4605020  64.1952960
  19.2096740  18.5630770  64.4755720  18.9873980  20.0076890  64.8699910
  32.0116520  19.1571320  59.0293610  32.8326140  18.6667890  59.0719090
  32.0450600  19.7468980  59.7825450  20.0080570  21.9565520  62.8035300
  20.6890680  22.2203890  63.4222700  19.6928620  21.1166390  63.1373310
  36.3016070  21.1738070  65.5937240  35.5968240  21.5619780  65.0752350
  36.5673990  21.8688360  66.1958170  22.4841240  17.6431440  66.1571310
  22.4859680  18.1603830  65.3517210  21.6545550  17.1661620  66.1341240
  22.1656570  19.3541400  64.1641760  22.5073380  20.1983450  63.8695630
  21.2272380  19.5025140  64.2807100  34.0244350  16.9622420  53.0495510
  33.7117010  17.0549250  53.9494580  34.7856820  17.5403450  52.9992940
  35.2345640  21.6993920  69.0269650  34.6189910  22.2073590  68.4985110
  34.9142060  20.7992250  68.9695590  27.2959960  20.5385810  66.4931840
  26.8339330  20.7468830  67.3051780  26.8938070  19.7245160  66.1902510
  32.2964470  21.7594760  67.6228500  31.4458060  21.4600510  67.9437570
  32.1366260  22.0036770  66.7112320  29.3914180  23.2596510  69.7227290
  29.7167590  22.4260260  69.3829520  30.1794510  23.7825030  69.8705620
  26.1248970  17.2927990  55.7702350  25.5003150  17.2887860  56.4955660
  26.0379090  16.4258950  55.3738320  25.2403580  23.6936440  69.2838040
  25.1447180  22.7531170  69.1338440  26.0835560  23.9151510  68.8886110
  20.3714120  20.1050110  67.4371820  19.9777510  20.9525320  67.6444600
  19.6832520  19.4676480  67.6280460  26.9459170  20.1885080  70.5068560
  26.2557490  19.9957280  71.1414650  27.6891470  20.4719720  71.0392860
  17.6731170  18.0278570  61.4701900  17.3844220  18.5981430  62.1826880
  18.4176930  17.5483020  61.8333130  33.1118800  16.8949380  68.5931800
  33.4364570  16.1639040  69.1189780  33.1475310  16.5763020  67.6912790
  19.8070600  24.6450880  66.9595950  19.4485540  25.3104730  67.5469290
  19.5125160  23.8134430  67.3308570  23.0083720  25.1035120  69.8435500
  22.7083860  25.2492300  68.9463320  23.7794960  24.5440410  69.7508890
  34.5623380  26.5411460  67.1859210  33.8371570  27.1340240  66.9888600
  35.0898840  26.5335000  66.3872580  21.3825240  16.3753000  58.1761350
  21.2539870  16.3670900  59.1246270  20.5587260  16.7136090  57.8252360
  18.3819170  18.1344120  67.6368050  17.6677690  18.3341040  68.2420660
  18.8014210  17.3583690  68.0082850  33.2419980  19.5823370  56.1957060
  32.6133140  19.6869040  55.4815290  32.7471900  19.8020150  56.9850940
  34.0426800  19.4973980  66.4535860  33.5400400  20.2379380  66.7929670
  34.8583460  19.8857980  66.1372650  18.5348010  25.6766750  69.3790240
  19.0387030  25.0974030  69.9506470  17.7955430  25.9606980  69.9166610
  32.7309300  28.8143070  69.4700780  33.4718770  29.1518830  68.9668240
  31.9681980  28.9835130  68.9170550  20.5671090  23.8196340  70.2740310
  20.6076430  23.5210210  71.1825540  21.4216590  24.2203950  70.1147830
  22.5076900  22.3988440  68.2414800  21.9773360  21.9079390  67.6138140
  23.1764970  22.8272640  67.7072730  31.4054960  26.8657900  68.0055990
  31.8195980  27.0202980  68.8546410  30.4705960  26.9913120  68.1681770
  31.8777130  24.2054060  70.0095140  32.4597900  23.4506380  69.9215620
  32.0538900  24.7361500  69.2326620  22.9949200  19.3650810  68.3212090
  22.9006070  18.7471560  67.5962960  22.4146590  20.0917100  68.0942000
  25.7610640  17.9224050  65.3539480  25.3127940  17.9448310  64.5085030
  25.1275840  17.5243070  65.9509780  25.2702860  21.0915910  68.6165580
  25.8602550  20.7831760  69.3043400  24.4523100  20.6195660  68.7725480
  30.0896290  20.7081720  68.8498600  29.4011810  20.0463260  68.7848590
  30.8102310  20.2619990  69.2947060  30.7196690  17.3033350  54.9088860
  30.9998980  16.4601250  55.2648280  29.9462420  17.5356460  55.4227610
  22.0391180  19.5925740  52.3679860  22.3417080  19.5993170  51.4599010
  22.7785770  19.2423600  52.8647520  25.2576110  18.5360360  53.3536060
  24.9098110  17.8584350  52.7738510  25.4588880  18.0749870  54.1679450
  31.5472190  19.8589300  53.9718920  31.9657070  19.6720280  53.1315580
  31.2408250  19.0068350  54.2821850  34.4361540  23.9184960  67.3034240
  34.2047630  23.6897710  66.4032190  34.6966090  24.8384510  67.2579130
  19.1873680  22.3609670  68.1962190  18.2929730  22.3276430  68.5355900
  19.7271230  22.5596460  68.9613440  32.8749610  19.1441390  70.0813940
  33.7519790  19.1524790  70.4647940  32.8870450  18.4072230  69.4706290
  20.0021200  17.3851810  52.6422790  20.7249330  17.9260750  52.9604010
  20.2745720  17.1115230  51.7664330  19.6913390  16.6358000  62.5445410
  20.3389580  16.0855380  62.1040570  20.1115230  16.8901150  63.3661220
  35.2400010  20.8905230  59.4432050  35.1299290  20.7361270  60.3814320
  36.0007600  20.3626170  59.2007460  33.5865730  16.8299360  65.9015050
  34.2237950  17.4433500  66.2674240  33.7340620  16.8660020  64.9564280
  36.1290280  18.7213150  52.6838190  37.0539590  18.5894330  52.4756480
  36.1066070  18.8005970  53.6374640  36.2028770  19.4923810  55.3094900
  35.4080270  19.4268930  55.8387810  36.4072050  20.4274450  55.2980250
  19.4445390  16.7913670  65.2870730  19.0960210  17.2477490  66.0528910
  19.1133090  15.8970800  65.3693160  26.9570210  17.9825550  68.8090150
  26.8959100  18.5747380  69.5585560  27.8970590  17.8751510  68.6640410
  29.5944770  17.6395610  68.4482440  30.2085180  17.9574900  67.7863520
  30.1394330  17.1544200  69.0678300  20.1166030  16.3189870  68.5621500
  20.6649020  16.1377920  67.7987610  20.1821340  15.5283980  69.0977810
  30.3352810  16.2027750  64.7751730  29.4612650  16.5362860  64.5724660
  30.2263560  15.7300930  65.6003600  31.2424790  18.4098620  66.1593450
  30.9138150  17.5950380  65.7795180  32.1907090  18.3668430  66.0359140
  28.0827630  17.1197590  63.7144640  27.2999420  17.5943090  63.9941400
  27.7890560  16.2152420  63.6057820  34.4987270  17.4535930  59.7702550
  34.4375670  16.5097150  59.6233570  35.2779300  17.5616020  60.3156010
  19.4268040  17.4245070  56.2358360  20.1847400  17.5373950  55.6622390
  18.9645210  18.2614270  56.1901790  30.4706830  16.2026790  60.4643740
  31.0736200  16.7747000  60.9392260  29.7299820  16.7666230  60.2417640
  33.6141430  16.6048350  55.7384020  33.8092060  17.5031800  56.0051450
  32.8271300  16.3735430  56.2316970  21.7993190  17.9509120  54.7760330
  22.3285950  17.1638920  54.6468280  22.4321510  18.6300310  55.0095860
  26.9322980  34.3023490  70.5016330  27.8590290  34.0667760  70.5452290
  26.9173410  35.1295490  70.0202360  24.1186590  16.9668240  70.2658210
  23.8370860  17.4701840  69.5019030  24.5006290  16.1689990  69.9000340
  30.7202050  16.3821820  70.8438680  30.6067500  16.7016430  71.7390200
  31.5371790  16.7834330  70.5475960  29.6260200  24.4014290  41.2073420
  29.5454250  23.4868900  40.9365130  29.2124620  24.8981360  40.5013130
  20.1836020  21.4515010  37.7500840  19.2952720  21.7930980  37.6480720
  20.4677210  21.2515330  36.8581670  19.3893900  19.4605020  45.4209470
  19.2096740  18.5630770  45.7012230  18.9873980  20.0076890  46.0956420
  28.2292400  21.6620880  43.3221780  28.6057220  20.7892760  43.2095450
  28.1311910  21.9979580  42.4312220  22.3597410  20.0346510  38.7839220
  22.4664160  20.9350240  39.0907980  21.4489770  19.9864480  38.4933870
  36.3016070  21.1738070  46.8193750  35.5968240  21.5619780  46.3008860
  36.5673990  21.8688360  47.4214680  22.4841240  17.6431440  47.3827820
  22.4859680  18.1603830  46.5773720  21.6545550  17.1661620  47.3597750
  32.2478000  21.0971700  43.0277660  31.5433570  21.3856590  43.6080770
  32.6090160  21.9071810  42.6677220  22.1656570  19.3541400  45.3898270
  22.5073380  20.1983450  45.0952140  21.2272380  19.5025140  45.5063610
  35.3164920  20.5426490  43.4186870  34.3689830  20.5765470  43.5502300
  35.6414910  21.3565440  43.8036230  25.8484460  16.8423670  41.7142860
  26.1559440  16.2870560  40.9978360  24.9185160  16.9768130  41.5315850
  28.2365220  24.9072500  38.4502980  27.3094500  24.8409880  38.6791450
  28.3890040  25.8452630  38.3358220  31.7089070  22.6477340  46.3704040
  31.2960250  23.4731050  46.6244030  30.9765020  22.0622380  46.1780400
  20.5426490  24.3282220  38.7329360  20.4224090  25.0544310  38.1210630
  20.2327380  23.5585130  38.2557270  35.2345640  21.6993920  50.2526160
  34.6189910  22.2073590  49.7241620  34.9142060  20.7992250  50.1952100
  23.0090150  17.6717290  42.1153030  22.5658300  18.4526830  41.7837550
  23.5675140  17.9947180  42.8223970  27.2959960  20.5385810  47.7188350
  26.8339330  20.7468830  48.5308290  26.8938070  19.7245160  47.4159020
  32.2964470  21.7594760  48.8485010  31.4458060  21.4600510  49.1694080
  32.1366260  22.0036770  47.9368830  26.1248970  17.2927990  36.9958860
  25.5003150  17.2887860  37.7212170  26.0379090  16.4258950  36.5994830
  25.0466050  18.2164620  43.9742630  25.3438380  19.1227450  43.8934650
  25.5951610  17.7283400  43.3602200  22.8004370  22.7950860  39.8434280
  22.5745290  22.5788030  40.7480900  22.0196900  23.2279320  39.4980250
  28.6367000  21.4377770  40.4728210  29.0296570  21.7549970  39.6596900
  28.9983850  20.5589650  40.5872730  20.3714120  20.1050110  48.6628330
  19.9777510  20.9525320  48.8701110  19.6832520  19.4676480  48.8536970
  17.6731170  18.0278570  42.6958410  17.3844220  18.5981430  43.4083390
  18.4176930  17.5483020  43.0589640  17.8601400  21.9698690  33.9061130
  17.7776070  22.9129450  34.0476120  17.5084460  21.8273600  33.0273480
  29.2222140  24.0283520  44.5678990  28.4903260  24.5370330  44.9169090
  28.8246480  23.2113500  44.2667770  25.6599530  20.7037720  42.9731480
  25.6635590  20.2627670  42.1236020  26.5550650  21.0255050  43.0803300
  21.5101910  20.5864210  41.9325690  21.1701960  21.0639440  42.6892740
  20.7479230  20.1329330  41.5726790  25.7219680  21.7049800  35.9638240
  25.8432500  21.6636280  36.9124060  25.3368190  22.5673950  35.8084970
  29.6848050  19.4817200  43.9801930  29.7020790  19.9325850  44.8243780
  29.4363630  18.5822840  44.1935370  24.7341180  24.0150940  35.3621540
  24.1658080  23.5669190  34.7357450  25.4430180  24.3743720  34.8286690
  33.1118800  16.8949380  49.8188310  33.4364570  16.1639040  50.3446290
  33.1475310  16.5763020  48.9169300  18.8247990  19.5083190  40.8490360
  18.5394910  19.1438860  41.6868980  18.7626850  18.7763650  40.2353500
  23.0083720  25.1035120  51.0692010  22.7083860  25.2492300  50.1719830
  23.7794960  24.5440410  50.9765400  18.3178650  24.6442140  34.8087060
  19.1873500  24.9266940  35.0922980  17.8268970  25.4578010  34.6935870
  21.3825240  16.3753000  39.4017860  21.2539870  16.3670900  40.3502780
  20.5587260  16.7136090  39.0508870  18.3819170  18.1344120  48.8624560
  17.6677690  18.3341040  49.4677170  18.8014210  17.3583690  49.2339360
  32.4850120  27.7474600  36.2618390  32.1971820  28.2087290  37.0496270
  33.2802290  27.2872370  36.5302610  29.8757950  20.6266430  46.6126010
  30.2438770  19.8061640  46.9405580  29.0156150  20.6868320  47.0281660
  25.2104010  21.8609320  38.8371450  24.5020160  22.3295660  39.2785060
  25.4948490  21.2031330  39.4716640  26.8359940  23.2806020  46.8363980
  27.3345190  23.7551840  47.5015830  26.9782890  22.3569540  47.0434010
  23.4139030  20.1694400  36.2122160  24.2629560  20.6064550  36.1462350
  23.0470300  20.4814660  37.0394220  34.0426800  19.4973980  47.6792370
  33.5400400  20.2379380  48.0186180  34.8583460  19.8857980  47.3629160
  32.3348810  24.7407160  41.1253730  31.3938950  24.7557390  41.3001420
  32.6492880  23.9543120  41.5714030  21.0077210  23.8551830  35.3690580
  21.0880800  22.9079340  35.4807980  21.8996960  24.1858710  35.4751240
  18.5348010  25.6766750  50.6046750  19.0387030  25.0974030  51.1762980
  17.7955430  25.9606980  51.1423120  28.6774360  27.4600970  34.7635030
  28.1284460  27.9070270  35.4077770  29.2993620  26.9550220  35.2872700
  20.5671090  23.8196340  51.4996820  20.6076430  23.5210210  52.4082050
  21.4216590  24.2203950  51.3404340  24.3449480  26.4191890  36.6600330
  24.7665900  26.2531760  37.5031720  24.4700320  25.6092120  36.1655470
  22.5076900  22.3988440  49.4671310  21.9773360  21.9079390  48.8394650
  23.1764970  22.8272640  48.9329240  22.9949200  19.3650810  49.5468600
  22.9006070  18.7471560  48.8219470  22.4146590  20.0917100  49.3198510
  25.7610640  17.9224050  46.5795990  25.3127940  17.9448310  45.7341540
  25.1275840  17.5243070  47.1766290  23.2408380  22.4925120  33.6058490
  23.0397440  21.6292480  33.9671830  23.0700430  22.4058480  32.6680090
  25.2702860  21.0915910  49.8422090  25.8602550  20.7831760  50.5299910
  24.4523100  20.6195660  49.9981990  30.0896290  20.7081720  50.0755110
  29.4011810  20.0463260  50.0105100  30.8102310  20.2619990  50.5203570
  22.0391180  19.5925740  33.5936370  22.3417080  19.5993170  32.6855520
  22.7785770  19.2423600  34.0904030  25.2576110  18.5360360  34.5792570
  24.9098110  17.8584350  33.9995020  25.4588880  18.0749870  35.3935960
  32.8749610  19.1441390  51.3070450  33.7519790  19.1524790  51.6904450
  32.8870450  18.4072230  50.6962800  17.8119830  22.2746940  36.9182270
  16.9083910  22.5377140  36.7433930  18.2960450  22.5458110  36.1382230
  34.3212880  22.9970930  42.1958470  34.8450360  22.5033580  41.5648640
  34.9072300  23.1321290  42.9406040  34.5002600  23.0810800  45.7178020
  33.5505310  23.0474340  45.8323010  34.6815610  23.9910910  45.4827790
  20.3547040  21.3312480  34.8276650  21.0638740  20.9095700  34.3423930
  19.6386980  21.3987710  34.1960000  20.0021200  17.3851810  33.8679300
  20.7249330  17.9260750  34.1860520  20.2745720  17.1115230  32.9920840
  19.6913390  16.6358000  43.7701920  20.3389580  16.0855380  43.3297080
  20.1115230  16.8901150  44.5917730  35.2400010  20.8905230  40.6688560
  35.1299290  20.7361270  41.6070830  36.0007600  20.3626170  40.4263970
  33.5865730  16.8299360  47.1271560  34.2237950  17.4433500  47.4930750
  33.7340620  16.8660020  46.1820790  19.4445390  16.7913670  46.5127240
  19.0960210  17.2477490  47.2785420  19.1133090  15.8970800  46.5949670
  26.9570210  17.9825550  50.0346660  26.8959100  18.5747380  50.7842070
  27.8970590  17.8751510  49.8896920  29.5944770  17.6395610  49.6738950
  30.2085180  17.9574900  49.0120030  30.1394330  17.1544200  50.2934810
  20.1166030  16.3189870  49.7878010  20.6649020  16.1377920  49.0244120
  20.1821340  15.5283980  50.3234320  30.3352810  16.2027750  46.0008240
  29.4612650  16.5362860  45.7981170  30.2263560  15.7300930  46.8260110
  31.2424790  18.4098620  47.3849960  30.9138150  17.5950380  47.0051690
  32.1907090  18.3668430  47.2615650  28.0827630  17.1197590  44.9401150
  27.2999420  17.5943090  45.2197910  27.7890560  16.2152420  44.8314330
  32.6348700  17.8220690  42.9850240  33.0756790  17.7665790  42.1371840
  32.3656290  18.7378700  43.0560420  34.4987270  17.4535930  40.9959060
  34.4375670  16.5097150  40.8490080  35.2779300  17.5616020  41.5412520
  19.4268040  17.4245070  37.4614870  20.1847400  17.5373950  36.8878900
  18.9645210  18.2614270  37.4158300  25.9681850  19.5384340  40.4517180
  25.1556360  19.1641230  40.1113060  26.4723490  18.7829420  40.7538370
  30.4706830  16.2026790  41.6900250  31.0736200  16.7747000  42.1648770
  29.7299820  16.7666230  41.4674150  21.7993190  17.9509120  36.0016840
  22.3285950  17.1638920  35.8724790  22.4321510  18.6300310  36.2352370
  23.9931030  17.6884260  39.0562230  23.3633770  16.9871570  39.2232360
  23.4536170  18.4488390  38.8395390  24.1186590  16.9668240  51.4914720
  23.8370860  17.4701840  50.7275540  24.5006290  16.1689990  51.1256850
  30.7202050  16.3821820  52.0695190  30.6067500  16.7016430  52.9646710
  31.5371790  16.7834330  51.7732470  20.1836020  21.4515010  18.9757350
  19.2952720  21.7930980  18.8737230  20.4677210  21.2515330  18.0838180
  18.1469030  24.0520660  24.8597050  18.7185140  23.2842860  24.8600690
  18.1470570  24.3509420  23.9503660  19.3893900  19.4605020  26.6465980
  19.2096740  18.5630770  26.9268740  18.9873980  20.0076890  27.3212930
  22.3597410  20.0346510  20.0095730  22.4664160  20.9350240  20.3164490
  21.4489770  19.9864480  19.7190380  20.0080570  21.9565520  25.2548320
  20.6890680  22.2203890  25.8735720  19.6928620  21.1166390  25.5886330
  22.4841240  17.6431440  28.6084330  22.4859680  18.1603830  27.8030230
  21.6545550  17.1661620  28.5854260  28.8712330  27.7550750  20.1074230
  28.2529600  28.2200200  19.5436950  29.3835580  28.4478230  20.5243740
  22.1656570  19.3541400  26.6154780  22.5073380  20.1983450  26.3208650
  21.2272380  19.5025140  26.7320120  18.2395530  28.4407280  17.4813860
  17.8623510  28.9294380  16.7498760  18.4968600  29.1132560  18.1120390
  25.8484460  16.8423670  22.9399370  26.1559440  16.2870560  22.2234870
  24.9185160  16.9768130  22.7572360  28.2365220  24.9072500  19.6759490
  27.3094500  24.8409880  19.9047960  28.3890040  25.8452630  19.5614730
  28.2234300  21.1789500  16.6726650  27.2837970  21.3403460  16.7579110
  28.5417560  21.8975180  16.1262640  23.8421860  25.4337240  22.4579220
  23.4378860  24.7214490  21.9625120  23.9284980  25.0890480  23.3467260
  30.4427210  25.7079610  17.1867490  30.8820490  24.8702040  17.0405310
  31.1555630  26.3409010  17.2731630  22.2293210  25.7299810  29.8483600
  22.0900980  26.6022610  30.2171000  21.3474570  25.3872620  29.7031540
  28.5522590  30.6475680  21.1548730  28.9918500  31.3900010  20.7404120
  28.4909480  30.8902250  22.0787690  34.0244350  16.9622420  15.5008530
  33.7117010  17.0549250  16.4007600  34.7856820  17.5403450  15.4505960
  20.5426490  24.3282220  19.9585870  20.4224090  25.0544310  19.3467140
  20.2327380  23.5585130  19.4813780  18.1811860  27.4997360  25.7654510
  18.2592280  27.6346130  24.8210230  18.7953540  26.7913250  25.9582630
  19.4259490  29.1997550  22.1760690  19.0187570  29.3412140  21.3214290
  20.3172500  28.9157710  21.9731900  23.6981150  33.4143330  20.2883360
  23.5223630  32.4978870  20.0751160  22.8436890  33.7730620  20.5281160
  30.4868830  32.7695070  21.1458230  30.9425780  31.9884450  21.4596850
  30.8261350  33.4801890  21.6899410  18.2371380  28.5411530  28.3048970
  18.4002420  28.0716890  27.4868340  18.7023830  28.0335090  28.9697810
  23.0090150  17.6717290  23.3409540  22.5658300  18.4526830  23.0094060
  23.5675140  17.9947180  24.0480480  26.1248970  17.2927990  18.2215370
  25.5003150  17.2887860  18.9468680  26.0379090  16.4258950  17.8251340
  25.0466050  18.2164620  25.1999140  25.3438380  19.1227450  25.1191160
  25.5951610  17.7283400  24.5858710  22.8004370  22.7950860  21.0690790
  22.5745290  22.5788030  21.9737410  22.0196900  23.2279320  20.7236760
  20.3714120  20.1050110  29.8884840  19.9777510  20.9525320  30.0957620
  19.6832520  19.4676480  30.0793480  17.6731170  18.0278570  23.9214920
  17.3844220  18.5981430  24.6339900  18.4176930  17.5483020  24.2846150
  17.8601400  21.9698690  15.1317640  17.7776070  22.9129450  15.2732630
  17.5084460  21.8273600  14.2529990  25.6599530  20.7037720  24.1987990
  25.6635590  20.2627670  23.3492530  26.5550650  21.0255050  24.3059810
  21.5101910  20.5864210  23.1582200  21.1701960  21.0639440  23.9149250
  20.7479230  20.1329330  22.7983300  25.7219680  21.7049800  17.1894750
  25.8432500  21.6636280  18.1380570  25.3368190  22.5673950  17.0341480
  24.7341180  24.0150940  16.5878050  24.1658080  23.5669190  15.9613960
  25.4430180  24.3743720  16.0543200  19.8110360  27.9162960  30.4644780
  19.4265150  27.2756630  31.0627740  20.1222550  28.6199080  31.0339510
  18.8247990  19.5083190  22.0746870  18.5394910  19.1438860  22.9125490
  18.7626850  18.7763650  21.4610010  22.2788660  28.0109130  18.8604460
  21.5050920  27.4706750  18.7003180  23.0083290  27.4915740  18.5222220
  28.4986580  18.4012450  18.7960240  27.6851190  17.9025620  18.7205550
  28.3048530  19.2410700  18.3796590  22.3226060  27.6789510  22.4983270
  22.8404730  26.8757770  22.4440160  21.8710080  27.6168650  23.3400100
  27.2095560  28.9455790  17.7710570  27.5511260  29.6898020  17.2753890
  26.3808270  29.2586910  18.1335400  19.8070600  24.6450880  29.4108970
  19.4485540  25.3104730  29.9982310  19.5125160  23.8134430  29.7821590
  23.0083720  25.1035120  32.2948520  22.7083860  25.2492300  31.3976340
  23.7794960  24.5440410  32.2021910  26.1786250  29.0269320  20.5426490
  26.8657380  29.5738530  20.9234080  25.3918670  29.5710050  20.5776100
  18.3178650  24.6442140  16.0343570  19.1873500  24.9266940  16.3179490
  17.8268970  25.4578010  15.9192380  25.4813460  26.0315350  20.1551850
  25.9376240  26.8420600  20.3812040  25.1301670  25.7138490  20.9870340
  21.3825240  16.3753000  20.6274370  21.2539870  16.3670900  21.5759290
  20.5587260  16.7136090  20.2765380  18.6849900  33.8569520  16.6005200
  19.0447540  34.4558860  15.9462470  18.5442240  34.4029410  17.3740230
  18.3819170  18.1344120  30.0881070  17.6677690  18.3341040  30.6933680
  18.8014210  17.3583690  30.4595870  24.7018520  31.2400720  17.4178870
  24.6928620  31.9730410  16.8023380  23.7816880  30.9932300  17.5105830
  20.3025160  26.4615610  18.1625630  19.6953110  27.2014510  18.1720930
  20.7774510  26.5514970  17.3363830  27.6878120  31.3028960  16.0804060
  27.7890100  31.0992950  15.1506040  26.7879860  31.0487240  16.2851840
  25.2104010  21.8609320  20.0627960  24.5020160  22.3295660  20.5041570
  25.4948490  21.2031330  20.6973150  26.3296230  33.8215280  20.7751730
  26.5837730  33.7836670  19.8531100  25.3808710  33.6948610  20.7679980
  23.4139030  20.1694400  17.4378670  24.2629560  20.6064550  17.3718860
  23.0470300  20.4814660  18.2650730  22.3130450  26.4226760  15.9114200
  23.0793720  26.3108120  16.4739630  22.3905140  25.7264730  15.2590970
  21.0077210  23.8551830  16.5947090  21.0880800  22.9079340  16.7064490
  21.8996960  24.1858710  16.7007750  18.6937400  30.0720790  19.5723140
  17.7677180  30.3141930  19.5628550  19.1593830  30.8995050  19.4507890
  24.9194230  33.1777530  15.5207200  25.7122840  33.4666360  15.0688990
  24.3998580  32.7469700  14.8419680  18.5348010  25.6766750  31.8303260
  19.0387030  25.0974030  32.4019490  17.7955430  25.9606980  32.3679630
  25.4371630  28.3980940  15.3849550  25.3322270  27.7833290  16.1110930
  25.2695850  27.8746830  14.6012560  28.6774360  27.4600970  15.9891540
  28.1284460  27.9070270  16.6334280  29.2993620  26.9550220  16.5129210
  20.5671090  23.8196340  32.7253330  20.6076430  23.5210210  33.6338560
  21.4216590  24.2203950  32.5660850  24.3449480  26.4191890  17.8856840
  24.7665900  26.2531760  18.7288230  24.4700320  25.6092120  17.3911980
  22.5076900  22.3988440  30.6927820  21.9773360  21.9079390  30.0651160
  23.1764970  22.8272640  30.1585750  26.8577120  25.4429500  15.1333940
  27.3782780  24.7278520  14.7675090  27.5045520  26.0815370  15.4334450
  22.9949200  19.3650810  30.7725110  22.9006070  18.7471560  30.0475980
  22.4146590  20.0917100  30.5455020  23.2408380  22.4925120  14.8315000
  23.0397440  21.6292480  15.1928340  23.0700430  22.4058480  13.8936600
  30.7196690  17.3033350  17.3601880  30.9998980  16.4601250  17.7161300
  29.9462420  17.5356460  17.8740630  22.0391180  19.5925740  14.8192880
  22.3417080  19.5993170  13.9112030  22.7785770  19.2423600  15.3160540
  25.2576110  18.5360360  15.8049080  24.9098110  17.8584350  15.2251530
  25.4588880  18.0749870  16.6192470  27.4225150  33.5241110  17.4235680
  28.3175940  33.8626080  17.4454440  27.4542780  32.8020520  16.7959960
  21.0621310  28.8968160  15.6522680  21.4996180  29.4397830  16.3080260
  21.5469040  28.0715110  15.6619020  18.2767110  31.6857190  23.1042940
  18.6070120  30.8178250  22.8721580  18.7058110  31.8915710  23.9347900
  22.8729030  30.0166200  20.7644910  22.5724570  29.8931170  21.6648820
  22.7666520  29.1574790  20.3560640  18.7657320  32.5527780  25.8424570
  18.3288310  32.7328580  26.6748720  19.3335000  33.3102400  25.7006290
  18.5981750  25.0648010  22.2013450  17.9430590  24.7959650  21.5573150
  19.4359700  24.9552490  21.7515430  19.6357680  25.4500580  26.7416790
  20.0030720  25.3627980  27.6212810  19.0668500  24.6867130  26.6423650
  19.1873680  22.3609670  30.6475210  18.2929730  22.3276430  30.9868920
  19.7271230  22.5596460  31.4126460  17.8119830  22.2746940  18.1438780
  16.9083910  22.5377140  17.9690440  18.2960450  22.5458110  17.3638740
  20.3547040  21.3312480  16.0533160  21.0638740  20.9095700  15.5680440
  19.6386980  21.3987710  15.4216510  20.0021200  17.3851810  15.0935810
  20.7249330  17.9260750  15.4117030  20.2745720  17.1115230  14.2177350
  19.6913390  16.6358000  24.9958430  20.3389580  16.0855380  24.5553590
  20.1115230  16.8901150  25.8174240  36.1290280  18.7213150  15.1351210
  37.0539590  18.5894330  14.9269500  36.1066070  18.8005970  16.0887660
  19.4445390  16.7913670  27.7383750  19.0960210  17.2477490  28.5041930
  19.1133090  15.8970800  27.8206180  20.1166030  16.3189870  31.0134520
  20.6649020  16.1377920  30.2500630  20.1821340  15.5283980  31.5490830
  18.8040020  33.5928290  21.1839520  18.6362060  32.9598970  21.8821410
  17.9374530  33.7987690  20.8333710  19.4268040  17.4245070  18.6871380
  20.1847400  17.5373950  18.1135410  18.9645210  18.2614270  18.6414810
  25.9681850  19.5384340  21.6773690  25.1556360  19.1641230  21.3369570
  26.4723490  18.7829420  21.9794880  33.6141430  16.6048350  18.1897040
  33.8092060  17.5031800  18.4564470  32.8271300  16.3735430  18.6829990
  20.4102720  32.2861520  18.6289660  19.8850340  32.6669550  17.9251620
  20.3347300  32.9112290  19.3499370  21.7993190  17.9509120  17.2273350
  22.3285950  17.1638920  17.0981300  22.4321510  18.6300310  17.4608880
  23.9931030  17.6884260  20.2818740  23.3633770  16.9871570  20.4488870
  23.4536170  18.4488390  20.0651900  24.1186590  16.9668240  32.7171230
  23.8370860  17.4701840  31.9532050  24.5006290  16.1689990  32.3513360
  23.0095690  34.2343900  17.5038910  23.7414510  33.9503180  16.9562800
  23.2689360  33.9957180  18.3938290  22.1710480  30.3508630  17.5085240
  21.5419360  30.8193730  18.0571070  22.2858310  29.5057850  17.9431430
  29.6260200  24.4014290   3.6586440  29.5454250  23.4868900   3.3878150
  29.2124620  24.8981360   2.9526150  27.7578240  26.1793310   5.5395710
  26.9820340  25.6993750   5.8294280  28.4091170  25.4998960   5.3651870
  21.7744070  26.4913120   6.4171470  20.9428950  26.2361830   6.8167980
  22.3825050  26.5623890   7.1529390  31.7785670  30.5853500   4.3194840
  31.3167200  29.8140740   4.6482010  32.5911220  30.6119570   4.8247290
  21.7545330  30.5253210   6.6129490  22.0573370  29.6350950   6.4339710
  22.4988920  31.0823430   6.3851740  18.1469030  24.0520660   6.0853560
  18.7185140  23.2842860   6.0857200  18.1470570  24.3509420   5.1760170
  28.0048980  32.8711510   3.9398830  27.3860420  33.3269010   3.3693270
  28.8600760  33.0262970   3.5388530  27.1987230  28.8550500   5.5465870
  27.1295510  27.9140440   5.3855000  27.9607090  28.9451910   6.1188440
  19.3893900  19.4605020   7.8722490  19.2096740  18.5630770   8.1525250
  18.9873980  20.0076890   8.5469440  28.2292400  21.6620880   5.7734800
  28.6057220  20.7892760   5.6608470  28.1311910  21.9979580   4.8825240
  32.0116520  19.1571320   2.7063140  32.8326140  18.6667890   2.7488620
  32.0450600  19.7468980   3.4594980  20.0080570  21.9565520   6.4804830
  20.6890680  22.2203890   7.0992230  19.6928620  21.1166390   6.8142840
  24.2005140  23.0032880   5.5677420  24.7083360  23.5013850   6.2082440
  24.7318380  22.2268080   5.3916780  36.3016070  21.1738070   9.2706770
  35.5968240  21.5619780   8.7521880  36.5673990  21.8688360   9.8727700
  22.4841240  17.6431440   9.8340840  22.4859680  18.1603830   9.0286740
  21.6545550  17.1661620   9.8110770  23.7344090  27.2826620   8.0114340
  23.4013470  27.9095540   8.6535410  23.9110770  27.8088500   7.2316010
  32.2478000  21.0971700   5.4790680  31.5433570  21.3856590   6.0593790
  32.6090160  21.9071810   5.1190240  22.1656570  19.3541400   7.8411290
  22.5073380  20.1983450   7.5465160  21.2272380  19.5025140   7.9576630
  22.9463190  29.2507420   9.8263520  23.5637190  29.9258500   9.5447970
  22.0856310  29.6595400   9.7351020  33.8640780  30.7146830   7.7418160
  33.1804300  31.3845940   7.7334830  34.4035070  30.9127480   6.9763020
  35.3164920  20.5426490   5.8699890  34.3689830  20.5765470   6.0015320
  35.6414910  21.3565440   6.2549250  25.8484460  16.8423670   4.1655880
  26.1559440  16.2870560   3.4491380  24.9185160  16.9768130   3.9828870
  31.3999520  32.5590960   6.4563340  31.4126680  32.1553250   5.5885600
  30.8474740  33.3338250   6.3524770  30.7984960  27.4620800   7.7845950
  31.2153750  27.2480910   6.9499410  31.5224780  27.7193590   8.3554570
  34.7447060  25.8608020   7.8762190  33.9165690  25.9301110   7.4012320
  35.3397540  26.4462330   7.4078020  31.7089070  22.6477340   8.8217060
  31.2960250  23.4731050   9.0757050  30.9765020  22.0622380   8.6293420
  23.8421860  25.4337240   3.6835730  23.4378860  24.7214490   3.1881630
  23.9284980  25.0890480   4.5723770  24.3103560  29.1204800   5.8474940
  24.0131850  28.5150270   5.1682720  25.2603380  29.1582110   5.7364300
  22.5550480  22.2080450   7.4634770  23.1065070  22.3175790   6.6888020
  23.0693990  22.5818050   8.1790000  32.3989170  32.6936670   9.5098040
  31.9219730  33.5008860   9.3170650  31.7150960  32.0415000   9.6624250
  23.4021990  28.8586490  12.4982740  22.5050520  29.0826460  12.7456140
  23.4274860  28.9821430  11.5494140  22.2293210  25.7299810  11.0740110
  22.0900980  26.6022610  11.4427510  21.3474570  25.3872620  10.9288050
  28.5522590  30.6475680   2.3805240  28.9918500  31.3900010   1.9660630
  28.4909480  30.8902250   3.3044200  24.0273560  31.6721510  13.2825260
  23.9988990  32.0764460  12.4153690  23.8638530  30.7431870  13.1196860
  18.1811860  27.4997360   6.9911020  18.2592280  27.6346130   6.0466740
  18.7953540  26.7913250   7.1839140  19.4259490  29.1997550   3.4017200
  19.0187570  29.3412140   2.5470800  20.3172500  28.9157710   3.1988410
  35.3821630  29.6461460  11.7389440  35.5084690  29.4073340  10.8206620
  35.4243010  28.8146000  12.2111520  29.2438370  33.3489460  10.3084250
  29.7583040  33.2597470  11.1106680  28.4007450  33.6949160  10.6012160
  30.4868830  32.7695070   2.3714740  30.9425780  31.9884450   2.6853360
  30.8261350  33.4801890   2.9155920  35.2345640  21.6993920  12.7039180
  34.6189910  22.2073590  12.1754640  34.9142060  20.7992250  12.6465120
  18.2371380  28.5411530   9.5305480  18.4002420  28.0716890   8.7124850
  18.7023830  28.0335090  10.1954320  23.0090150  17.6717290   4.5666050
  22.5658300  18.4526830   4.2350570  23.5675140  17.9947180   5.2736990
  27.2959960  20.5385810  10.1701370  26.8339330  20.7468830  10.9821310
  26.8938070  19.7245160   9.8672040  32.2964470  21.7594760  11.2998030
  31.4458060  21.4600510  11.6207100  32.1366260  22.0036770  10.3881850
  29.3914180  23.2596510  13.3996820  29.7167590  22.4260260  13.0599050
  30.1794510  23.7825030  13.5475150  25.0466050  18.2164620   6.4255650
  25.3438380  19.1227450   6.3447670  25.5951610  17.7283400   5.8115220
  22.8004370  22.7950860   2.2947300  22.5745290  22.5788030   3.1993920
  22.0196900  23.2279320   1.9493270  25.2403580  23.6936440  12.9607570
  25.1447180  22.7531170  12.8107970  26.0835560  23.9151510  12.5655640
  28.6367000  21.4377770   2.9241230  29.0296570  21.7549970   2.1109920
  28.9983850  20.5589650   3.0385750  20.3714120  20.1050110  11.1141350
  19.9777510  20.9525320  11.3214130  19.6832520  19.4676480  11.3049990
  26.9459170  20.1885080  14.1838090  26.2557490  19.9957280  14.8184180
  27.6891470  20.4719720  14.7162390  17.6731170  18.0278570   5.1471430
  17.3844220  18.5981430   5.8596410  18.4176930  17.5483020   5.5102660
  29.2222140  24.0283520   7.0192010  28.4903260  24.5370330   7.3682110
  28.8246480  23.2113500   6.7180790  25.6599530  20.7037720   5.4244500
  25.6635590  20.2627670   4.5749040  26.5550650  21.0255050   5.5316320
  21.5101910  20.5864210   4.3838710  21.1701960  21.0639440   5.1405760
  20.7479230  20.1329330   4.0239810  29.6848050  19.4817200   6.4314950
  29.7020790  19.9325850   7.2756800  29.4363630  18.5822840   6.6448390
  33.1118800  16.8949380  12.2701330  33.4364570  16.1639040  12.7959310
  33.1475310  16.5763020  11.3682320  19.8110360  27.9162960  11.6901290
  19.4265150  27.2756630  12.2884250  20.1222550  28.6199080  12.2596020
  25.9607500  24.7639500   7.1709910  26.3277630  24.2898070   7.9171250
  25.7712560  25.6381070   7.5118250  18.8247990  19.5083190   3.3003380
  18.5394910  19.1438860   4.1382000  18.7626850  18.7763650   2.6866520
  23.7506870  23.8048140   9.4894120  23.4463940  24.6840120   9.7144480
  24.7053330  23.8647930   9.5251560  33.0376640  27.0074490   5.8787360
  33.7575760  27.5029780   5.4883470  32.8358460  26.3292380   5.2341230
  28.4195440  27.0783550  11.7656360  28.3532750  26.1579220  11.5113950
  27.7900580  27.1758990  12.4801000  22.3226060  27.6789510   3.7239780
  22.8404730  26.8757770   3.6696670  21.8710080  27.6168650   4.5656610
  19.8070600  24.6450880  10.6365480  19.4485540  25.3104730  11.2238820
  19.5125160  23.8134430  11.0078100  23.0083720  25.1035120  13.5205030
  22.7083860  25.2492300  12.6232850  23.7794960  24.5440410  13.4278420
  28.3512170  29.9004120  11.5160160  28.3656710  28.9685080  11.2979070
  27.6437270  29.9863880  12.1549930  34.5623380  26.5411460  10.8628740
  33.8371570  27.1340240  10.6658130  35.0898840  26.5335000  10.0642110
  30.0922970  28.2671630   4.3612590  30.4446790  27.6699760   3.7013960
  29.2085300  27.9415860   4.5320840  26.1786250  29.0269320   1.7683000
  26.8657380  29.5738530   2.1490590  25.3918670  29.5710050   1.8032610
  27.7846070  31.5421690   8.6100660  28.4288290  31.7481070   9.2874080
  28.1475510  30.7810090   8.1571510  29.0578150  29.5454040   7.3278110
  29.7000380  28.8447200   7.4410280  29.5827500  30.3252480   7.1475000
  30.8315770  30.3448940  10.5314170  31.1672010  30.9315630  11.2092090
  29.9116110  30.2141650  10.7611960  18.3819170  18.1344120  11.3137580
  17.6677690  18.3341040  11.9190190  18.8014210  17.3583690  11.6852380
  18.6691760  32.1224380  12.3004110  18.7782880  31.1819120  12.1599500
  18.0172320  32.3879130  11.6517840  26.6604350  30.3940270  13.7002230
  26.3401220  29.6749510  14.2447920  25.9862710  31.0695340  13.7738290
  29.8757950  20.6266430   9.0639030  30.2438770  19.8061640   9.3918600
  29.0156150  20.6868320   9.4794680  26.8359940  23.2806020   9.2877000
  27.3345190  23.7551840   9.9528850  26.9782890  22.3569540   9.4947030
  29.2419440  18.5859980   2.7280260  29.1187220  18.6046110   1.7789770
  30.1904000  18.6338920   2.8478660  34.0426800  19.4973980  10.1305390
  33.5400400  20.2379380  10.4699200  34.8583460  19.8857980   9.8142180
  32.3348810  24.7407160   3.5766750  31.3938950  24.7557390   3.7514440
  32.6492880  23.9543120   4.0227050  34.3374390  31.9116010   5.2521010
  34.4621810  32.7347180   5.7244820  35.2039950  31.7006740   4.9045160
  21.8091920  34.0047220   4.9238140  22.5454400  33.4562680   5.1946710
  22.1932840  34.8703230   4.7844130  20.8150200  33.1893290  14.1123720
  21.6162930  33.5105340  14.5259120  20.3002020  32.8288870  14.8343630
  29.6514830  29.2973160  14.0599130  29.0452990  29.3204760  13.3194880
  29.3468940  28.5656200  14.5966380  18.5348010  25.6766750  13.0559770
  19.0387030  25.0974030  13.6276000  17.7955430  25.9606980  13.5936140
  25.5885950  27.0837740  12.5895290  24.8231620  27.6522740  12.5049960
  25.7701910  26.7913950  11.6963520  20.5671090  23.8196340  13.9509840
  20.6076430  23.5210210  14.8595070  21.4216590  24.2203950  13.7917360
  22.5076900  22.3988440  11.9184330  21.9773360  21.9079390  11.2907670
  23.1764970  22.8272640  11.3842260  31.4054960  26.8657900  11.6825520
  31.8195980  27.0202980  12.5315940  30.4705960  26.9913120  11.8451300
  31.8777130  24.2054060  13.6864670  32.4597900  23.4506380  13.5985150
  32.0538900  24.7361500  12.9096150  22.9949200  19.3650810  11.9981620
  22.9006070  18.7471560  11.2732490  22.4146590  20.0917100  11.7711530
  25.7610640  17.9224050   9.0309010  25.3127940  17.9448310   8.1854560
  25.1275840  17.5243070   9.6279310  26.1670190  26.8178380   9.6521450
  26.5858300  27.6611110   9.4797690  25.2478820  26.9550420   9.4228230
  28.5034090  24.5494560  11.0359290  28.6230300  23.9535700  11.7754130
  29.3628090  24.5864250  10.6160590  30.8421990  25.1031750   9.6121800
  30.3157210  25.6274370   9.0086940  31.1853330  25.7359140  10.2431530
  24.0177610  33.1231390  10.7679180  23.4798700  33.8477450  10.4487880
  24.2711570  32.6461730   9.9776520  25.2702860  21.0915910  12.2935110
  25.8602550  20.7831760  12.9812930  24.4523100  20.6195660  12.4495010
  30.0896290  20.7081720  12.5268130  29.4011810  20.0463260  12.4618120
  30.8102310  20.2619990  12.9716590  26.8739820  34.3582600  11.0265830
  26.7998520  35.2617740  11.3338200  25.9718660  34.0394500  10.9987900
  18.2767110  31.6857190   4.3299450  18.6070120  30.8178250   4.0978090
  18.7058110  31.8915710   5.1604410  18.7657320  32.5527780   7.0681080
  18.3288310  32.7328580   7.9005230  19.3335000  33.3102400   6.9262800
  34.4019500  32.0544780  11.3558390  33.8021490  32.1137340  10.6122310
  34.5313400  31.1149760  11.4855240  18.5981750  25.0648010   3.4269960
  17.9430590  24.7959650   2.7829660  19.4359700  24.9552490   2.9771940
  36.1037380  27.3960180   4.0404230  36.4746210  26.6127500   3.6340200
  36.7439310  28.0849280   3.8621530  33.0871140  28.7796760   9.4534550
  32.2730980  29.2093920   9.7160340  33.4945340  29.3915170   8.8403600
  19.6357680  25.4500580   7.9673300  20.0030720  25.3627980   8.8469320
  19.0668500  24.6867130   7.8680160  34.4361540  23.9184960  10.9803770
  34.2047630  23.6897710  10.0801720  34.6966090  24.8384510  10.9348660
  19.1873680  22.3609670  11.8731720  18.2929730  22.3276430  12.2125430
  19.7271230  22.5596460  12.6382970  32.8749610  19.1441390  13.7583470
  33.7519790  19.1524790  14.1417470  32.8870450  18.4072230  13.1475820
  34.3212880  22.9970930   4.6471490  34.8450360  22.5033580   4.0161660
  34.9072300  23.1321290   5.3919060  34.5002600  23.0810800   8.1691040
  33.5505310  23.0474340   8.2836030  34.6815610  23.9910910   7.9340810
  19.6913390  16.6358000   6.2214940  20.3389580  16.0855380   5.7810100
  20.1115230  16.8901150   7.0430750  35.2400010  20.8905230   3.1201580
  35.1299290  20.7361270   4.0583850  36.0007600  20.3626170   2.8776990
  33.5865730  16.8299360   9.5784580  34.2237950  17.4433500   9.9443770
  33.7340620  16.8660020   8.6333810  33.1447190  33.5315360   2.9802820
  33.7406260  33.2099930   2.3037240  33.4025340  33.0587180   3.7716090
  19.4445390  16.7913670   8.9640260  19.0960210  17.2477490   9.7298440
  19.1133090  15.8970800   9.0462690  21.0509760  29.9633270  13.1293450
  21.0079390  29.5926180  14.0107910  21.1820770  30.9010840  13.2695270
  24.7515790  31.5192860   8.7303170  24.5107150  31.7867420   7.8433690
  25.6918430  31.6898590   8.7854030  26.9570210  17.9825550  12.4859680
  26.8959100  18.5747380  13.2355090  27.8970590  17.8751510  12.3409940
  29.5944770  17.6395610  12.1251970  30.2085180  17.9574900  11.4633050
  30.1394330  17.1544200  12.7447830  36.0119950  33.5387240   9.5313810
  35.5178230  33.9356110   8.8140940  35.4033240  32.9136450   9.9251090
  20.1166030  16.3189870  12.2391030  20.6649020  16.1377920  11.4757140
  20.1821340  15.5283980  12.7747340  20.8897790  32.9095520  10.2491230
  20.2958110  32.7780220  10.9881270  20.8821630  32.0733660   9.7833330
  30.3352810  16.2027750   8.4521260  29.4612650  16.5362860   8.2494190
  30.2263560  15.7300930   9.2773130  31.2424790  18.4098620   9.8362980
  30.9138150  17.5950380   9.4564710  32.1907090  18.3668430   9.7128670
  33.6959400  34.1810660   6.8100550  33.2362370  34.9326470   6.4358570
  33.0671860  33.4617130   6.7515350  20.5210020  30.2753900   9.1999270
  19.7944080  29.6559190   9.1325220  20.5819170  30.6694510   8.3297350
  24.1255120  32.4898900   5.9848680  24.6420140  31.8786260   5.4596940
  24.7752500  32.9927680   6.4759690  26.8650620  33.3807390   6.8117660
  27.1528430  33.1261690   5.9350670  27.3773840  32.8284750   7.4023230
  28.0827630  17.1197590   7.3914170  27.2999420  17.5943090   7.6710930
  27.7890560  16.2152420   7.2827350  32.6348700  17.8220690   5.4363260
  33.0756790  17.7665790   4.5884860  32.3656290  18.7378700   5.5073440
  34.4987270  17.4535930   3.4472080  34.4375670  16.5097150   3.3003100
  35.2779300  17.5616020   3.9925540  18.8040020  33.5928290   2.4096030
  18.6362060  32.9598970   3.1077920  17.9374530  33.7987690   2.0590220
  25.9681850  19.5384340   2.9030200  25.1556360  19.1641230   2.5626080
  26.4723490  18.7829420   3.2051390  30.4706830  16.2026790   4.1413270
  31.0736200  16.7747000   4.6161790  29.7299820  16.7666230   3.9187170
  26.9322980  34.3023490  14.1785860  27.8590290  34.0667760  14.2221820
  26.9173410  35.1295490  13.6971890  24.1186590  16.9668240  13.9427740
  23.8370860  17.4701840  13.1788560  24.5006290  16.1689990  13.5769870
  30.7202050  16.3821820  14.5208210  30.6067500  16.7016430  15.4159730
  31.5371790  16.7834330  14.2245490  29.6260200   5.6270800  78.7560400
  29.5454250   4.7125410  78.4852110  29.2124620   6.1237870  78.0500110
  27.7578240   7.4049820  80.6369670  26.9820340   6.9250260  80.9268240
  28.4091170   6.7255470  80.4625830  21.7744070   7.7169630  81.5145430
  20.9428950   7.4618340  81.9141940  22.3825050   7.7880400  82.2503350
  31.7785670  11.8110010  79.4168800  31.3167200  11.0397250  79.7455970
  32.5911220  11.8376080  79.9221250  21.7545330  11.7509720  81.7103450
  22.0573370  10.8607460  81.5313670  22.4988920  12.3079940  81.4825700
  20.1836020   2.6771520  75.2987820  19.2952720   3.0187490  75.1967700
  20.4677210   2.4771840  74.4068650  18.1469030   5.2777170  81.1827520
  18.7185140   4.5099370  81.1831160  18.1470570   5.5765930  80.2734130
  28.0048980  14.0968020  79.0372790  27.3860420  14.5525520  78.4667230
  28.8600760  14.2519480  78.6362490  27.1987230  10.0807010  80.6439830
  27.1295510   9.1396950  80.4828960  27.9607090  10.1708420  81.2162400
  28.2292400   2.8877390  80.8708760  28.6057220   2.0149270  80.7582430
  28.1311910   3.2236090  79.9799200  20.0080570   3.1822030  81.5778790
  20.6890680   3.4460400  82.1966190  19.6928620   2.3422900  81.9116800
  24.2005140   4.2289390  80.6651380  24.7083360   4.7270360  81.3056400
  24.7318380   3.4524590  80.4890740  28.8712330   8.9807260  76.4304700
  28.2529600   9.4456710  75.8667420  29.3835580   9.6734740  76.8474210
  23.7344090   8.5083130  83.1088300  23.4013470   9.1352050  83.7509370
  23.9110770   9.0345010  82.3289970  32.2478000   2.3228210  80.5764640
  31.5433570   2.6113100  81.1567750  32.6090160   3.1328320  80.2164200
  18.2395530   9.6663790  73.8044330  17.8623510  10.1550890  73.0729230
  18.4968600  10.3389070  74.4350860  33.8640780  11.9403340  82.8392120
  33.1804300  12.6102450  82.8308790  34.4035070  12.1383990  82.0736980
  35.3164920   1.7683000  80.9673850  34.3689830   1.8021980  81.0989280
  35.6414910   2.5821950  81.3523210  31.3999520  13.7847470  81.5537300
  31.4126680  13.3809760  80.6859560  30.8474740  14.5594760  81.4498730
  32.6944940  10.5063690  76.6427470  32.5841270   9.5638020  76.7676890
  32.6913190  10.8679330  77.5290230  30.7984960   8.6877310  82.8819910
  31.2153750   8.4737420  82.0473370  31.5224780   8.9450100  83.4528530
  28.2365220   6.1329010  75.9989960  27.3094500   6.0666390  76.2278430
  28.3890040   7.0709140  75.8845200  28.2234300   2.4046010  72.9957120
  27.2837970   2.5659970  73.0809580  28.5417560   3.1231690  72.4493110
  34.7447060   7.0864530  82.9736150  33.9165690   7.1557620  82.4986280
  35.3397540   7.6718840  82.5051980  32.2662510   7.6949310  76.5025210
  31.6474930   7.3568860  75.8551510  32.2486960   7.0509070  77.2104400
  23.8421860   6.6593750  78.7809690  23.4378860   5.9471000  78.2855590
  23.9284980   6.3146990  79.6697730  24.3103560  10.3461310  80.9448900
  24.0131850   9.7406780  80.2656680  25.2603380  10.3838620  80.8338260
  22.5550480   3.4336960  82.5608730  23.1065070   3.5432300  81.7861980
  23.0693990   3.8074560  83.2763960  30.4427210   6.9336120  73.5097960
  30.8820490   6.0958550  73.3635780  31.1555630   7.5665520  73.5962100
  28.5522590  11.8732190  77.4779200  28.9918500  12.6156520  77.0634590
  28.4909480  12.1158760  78.4018160  20.5426490   5.5538730  76.2816340
  20.4224090   6.2800820  75.6697610  20.2327380   4.7841640  75.8044250
  18.1811860   8.7253870  82.0884980  18.2592280   8.8602640  81.1440700
  18.7953540   8.0169760  82.2813100  19.4259490  10.4254060  78.4991160
  19.0187570  10.5668650  77.6444760  20.3172500  10.1414220  78.2962370
  31.2192770  14.8601310  74.8342210  31.0593910  14.5704250  75.7324040
  31.0539480  14.0841440  74.2987440  23.6981150  14.6399840  76.6113830
  23.5223630  13.7235380  76.3981630  22.8436890  14.9987130  76.8511630
  30.9218900  12.3688870  73.3940210  30.2284060  12.3666160  72.7342490
  31.6641760  11.9448190  72.9634380  30.4868830  13.9951580  77.4688700
  30.9425780  13.2140960  77.7827320  30.8261350  14.7058400  78.0129880
  22.8004370   4.0207370  77.3921260  22.5745290   3.8044540  78.2967880
  22.0196900   4.4535830  77.0467230  30.0302130   4.0270740  75.9911910
  29.4311020   4.7506540  75.8075530  30.5781740   3.9647520  75.2088360
  28.6367000   2.6634280  78.0215190  29.0296570   2.9806480  77.2083880
  28.9983850   1.7846160  78.1359710  17.8601400   3.1955200  71.4548110
  17.7776070   4.1385960  71.5963100  17.5084460   3.0530110  70.5760460
  29.2222140   5.2540030  82.1165970  28.4903260   5.7626840  82.4656070
  28.8246480   4.4370010  81.8154750  25.6599530   1.9294230  80.5218460
  25.6635590   1.4884180  79.6723000  26.5550650   2.2511560  80.6290280
  25.7219680   2.9306310  73.5125220  25.8432500   2.8892790  74.4611040
  25.3368190   3.7930460  73.3571950  24.7341180   5.2407450  72.9108520
  24.1658080   4.7925700  72.2844430  25.4430180   5.6000230  72.3773670
  25.9607500   5.9896010  82.2683870  26.3277630   5.5154580  83.0145210
  25.7712560   6.8637580  82.6092210  22.2788660   9.2365640  75.1834930
  21.5050920   8.6963260  75.0233650  23.0083290   8.7172250  74.8452690
  33.0376640   8.2331000  80.9761320  33.7575760   8.7286290  80.5857430
  32.8358460   7.5548890  80.3315190  31.2134970   3.9988610  73.4152870
  32.1014590   4.3105840  73.2404210  31.1840060   3.1260860  73.0233450
  22.3226060   8.9046020  78.8213740  22.8404730   8.1014280  78.7670630
  21.8710080   8.8425160  79.6630570  27.2095560  10.1712300  74.0941040
  27.5511260  10.9154530  73.5984360  26.3808270  10.4843420  74.4565870
  33.4849240   5.3100450  72.8832730  33.4012960   5.7414670  72.0329170
  34.2043430   5.7698800  73.3159550  34.5136490  12.1642710  75.6114860
  33.8712650  11.5098330  75.8858580  34.1267150  12.5697800  74.8355530
  30.0922970   9.4928140  79.4586550  30.4446790   8.8956270  78.7987920
  29.2085300   9.1672370  79.6294800  26.1786250  10.2525830  76.8656960
  26.8657380  10.7995040  77.2464550  25.3918670  10.7966560  76.9006570
  18.3178650   5.8698650  72.3574040  19.1873500   6.1523450  72.6409960
  17.8268970   6.6834520  72.2422850  25.4813460   7.2571860  76.4782320
  25.9376240   8.0677110  76.7042510  25.1301670   6.9395000  77.3100810
  29.0578150  10.7710550  82.4252070  29.7000380  10.0703710  82.5384240
  29.5827500  11.5508990  82.2448960  32.9033870  11.0559170  72.1491210
  32.6771450  10.3389610  72.7415850  32.5130070  10.8071610  71.3112960
  18.6849900  15.0826030  72.9235670  19.0447540  15.6815370  72.2692940
  18.5442240  15.6285920  73.6970700  32.4850120   8.9731110  73.8105370
  32.1971820   9.4343800  74.5983250  33.2802290   8.5128880  74.0789590
  24.7018520  12.4657230  73.7409340  24.6928620  13.1986920  73.1253850
  23.7816880  12.2188810  73.8336300  20.3025160   7.6872120  74.4856100
  19.6953110   8.4271020  74.4951400  20.7774510   7.7771480  73.6594300
  27.6878120  12.5285470  72.4034530  27.7890100  12.3249460  71.4736510
  26.7879860  12.2743750  72.6082310  25.2104010   3.0865830  76.3858430
  24.5020160   3.5552170  76.8272040  25.4948490   2.4287840  77.0203620
  26.3296230  15.0471790  77.0982200  26.5837730  15.0093180  76.1761570
  25.3808710  14.9205120  77.0910450  32.3348810   5.9663670  78.6740710
  31.3938950   5.9813900  78.8488400  32.6492880   5.1799630  79.1201010
  22.3130450   7.6483270  72.2344670  23.0793720   7.5364630  72.7970100
  22.3905140   6.9521240  71.5821440  21.0077210   5.0808340  72.9177560
  21.0880800   4.1335850  73.0294960  21.8996960   5.4115220  73.0238220
  34.3374390  13.1372520  80.3494970  34.4621810  13.9603690  80.8218780
  35.2039950  12.9263250  80.0019120  21.8091920  15.2303730  80.0212100
  22.5454400  14.6819190  80.2920670  22.1932840  16.0959740  79.8818090
  18.6937400  11.2977300  75.8953610  17.7677180  11.5398440  75.8859020
  19.1593830  12.1251560  75.7738360  24.9194230  14.4034040  71.8437670
  25.7122840  14.6922870  71.3919460  24.3998580  13.9726210  71.1650150
  33.9724400  13.6304170  73.2674410  33.6865910  13.2169310  72.4528590
  33.7743950  14.5591880  73.1474930  25.4371630   9.6237450  71.7080020
  25.3322270   9.0089800  72.4341400  25.2695850   9.1003340  70.9243030
  28.6774360   8.6857480  72.3122010  28.1284460   9.1326780  72.9564750
  29.2993620   8.1806730  72.8359680  24.3449480   7.6448400  74.2087310
  24.7665900   7.4788270  75.0518700  24.4700320   6.8348630  73.7142450
  26.8577120   6.6686010  71.4564410  27.3782780   5.9535030  71.0905560
  27.5045520   7.3071880  71.7564920  23.2408380   3.7181630  71.1545470
  23.0397440   2.8548990  71.5158810  23.0700430   3.6314990  70.2167070
  27.4225150  14.7497620  73.7466150  28.3175940  15.0882590  73.7684910
  27.4542780  14.0277030  73.1190430  21.0621310  10.1224670  71.9753150
  21.4996180  10.6654340  72.6310730  21.5469040   9.2971620  71.9849490
  18.2767110  12.9113700  79.4273410  18.6070120  12.0434760  79.1952050
  18.7058110  13.1172220  80.2578370  22.8729030  11.2422710  77.0875380
  22.5724570  11.1187680  77.9879290  22.7666520  10.3831300  76.6791110
  18.7657320  13.7784290  82.1655040  18.3288310  13.9585090  82.9979190
  19.3335000  14.5358910  82.0236760  35.6420950  11.0219110  71.7902060
  34.8113910  11.0895760  72.2609290  35.8192780  11.9123230  71.4868920
  35.0977410   7.7666590  74.2936260  35.8596320   8.3363240  74.3995950
  35.1131780   7.1993790  75.0644570  18.5981750   6.2904520  78.5243920
  17.9430590   6.0216160  77.8803620  19.4359700   6.1809000  78.0745900
  36.1037380   8.6216690  79.1378190  36.4746210   7.8384010  78.7314160
  36.7439310   9.3105790  78.9595490  35.1496580   8.0600960  71.4508780
  35.4245420   8.9679840  71.3228000  34.9607320   7.9963490  72.3870770
  35.0461920   5.9969950  76.4438210  34.6705520   5.2297880  76.0119500
  34.3165040   6.3792650  76.9313140  17.8119830   3.5003450  74.4669250
  16.9083910   3.7633650  74.2920910  18.2960450   3.7714620  73.6869210
  34.3212880   4.2227440  79.7445450  34.8450360   3.7290090  79.1135620
  34.9072300   4.3577800  80.4893020  34.5002600   4.3067310  83.2665000
  33.5505310   4.2730850  83.3809990  34.6815610   5.2167420  83.0314770
  20.3547040   2.5568990  72.3763630  21.0638740   2.1352210  71.8910910
  19.6386980   2.6244220  71.7446980  33.8112850   3.4800790  75.6837860
  34.3071970   3.2471660  76.4686740  33.6128920   2.6412630  75.2675500
  35.2400010   2.1161740  78.2175540  35.1299290   1.9617780  79.1557810
  36.0007600   1.5882680  77.9750950  33.1447190  14.7571870  78.0776780
  33.7406260  14.4356440  77.4011200  33.4025340  14.2843690  78.8690050
  33.6959400  15.4067170  81.9074510  33.2362370  16.1582980  81.5332530
  33.0671860  14.6873640  81.8489310  24.1255120  13.7155410  81.0822640
  24.6420140  13.1042770  80.5570900  24.7752500  14.2184190  81.5733650
  26.8650620  14.6063900  81.9091620  27.1528430  14.3518200  81.0324630
  27.3773840  14.0541260  82.4997190  18.8040020  14.8184800  77.5069990
  18.6362060  14.1855480  78.2051880  17.9374530  15.0244200  77.1564180
  20.4102720  13.5118030  74.9520130  19.8850340  13.8926060  74.2482090
  20.3347300  14.1368800  75.6729840  35.1668040  15.0705570  76.2734070
  35.3420230  14.3843310  75.6294990  34.4689610  15.5952620  75.8810740
  23.0095690  15.4600410  73.8269380  23.7414510  15.1759690  73.2793270
  23.2689360  15.2213690  74.7168760  22.1710480  11.5765140  73.8315710
  21.5419360  12.0450240  74.3801540  22.2858310  10.7314360  74.2661900
  29.6260200   5.6270800  59.9816910  29.5454250   4.7125410  59.7108620
  29.2124620   6.1237870  59.2756620  27.7578240   7.4049820  61.8626180
  26.9820340   6.9250260  62.1524750  28.4091170   6.7255470  61.6882340
  21.7744070   7.7169630  62.7401940  20.9428950   7.4618340  63.1398450
  22.3825050   7.7880400  63.4759860  31.7785670  11.8110010  60.6425310
  31.3167200  11.0397250  60.9712480  32.5911220  11.8376080  61.1477760
  21.7545330  11.7509720  62.9359960  22.0573370  10.8607460  62.7570180
  22.4988920  12.3079940  62.7082210  20.1836020   2.6771520  56.5244330
  19.2952720   3.0187490  56.4224210  20.4677210   2.4771840  55.6325160
  18.1469030   5.2777170  62.4084030  18.7185140   4.5099370  62.4087670
  18.1470570   5.5765930  61.4990640  28.0048980  14.0968020  60.2629300
  27.3860420  14.5525520  59.6923740  28.8600760  14.2519480  59.8619000
  27.1987230  10.0807010  61.8696340  27.1295510   9.1396950  61.7085470
  27.9607090  10.1708420  62.4418910  28.2292400   2.8877390  62.0965270
  28.6057220   2.0149270  61.9838940  28.1311910   3.2236090  61.2055710
  20.0080570   3.1822030  62.8035300  20.6890680   3.4460400  63.4222700
  19.6928620   2.3422900  63.1373310  24.2005140   4.2289390  61.8907890
  24.7083360   4.7270360  62.5312910  24.7318380   3.4524590  61.7147250
  36.3016070   2.3994580  65.5937240  35.5968240   2.7876290  65.0752350
  36.5673990   3.0944870  66.1958170  28.8712330   8.9807260  57.6561210
  28.2529600   9.4456710  57.0923930  29.3835580   9.6734740  58.0730720
  23.7344090   8.5083130  64.3344810  23.4013470   9.1352050  64.9765880
  23.9110770   9.0345010  63.5546480  32.2478000   2.3228210  61.8021150
  31.5433570   2.6113100  62.3824260  32.6090160   3.1328320  61.4420710
  22.9463190  10.4763930  66.1493990  23.5637190  11.1515010  65.8678440
  22.0856310  10.8851910  66.0581490  18.2395530   9.6663790  55.0300840
  17.8623510  10.1550890  54.2985740  18.4968600  10.3389070  55.6607370
  33.8640780  11.9403340  64.0648630  33.1804300  12.6102450  64.0565300
  34.4035070  12.1383990  63.2993490  35.3164920   1.7683000  62.1930360
  34.3689830   1.8021980  62.3245790  35.6414910   2.5821950  62.5779720
  31.3999520  13.7847470  62.7793810  31.4126680  13.3809760  61.9116070
  30.8474740  14.5594760  62.6755240  32.6944940  10.5063690  57.8683980
  32.5841270   9.5638020  57.9933400  32.6913190  10.8679330  58.7546740
  30.7984960   8.6877310  64.1076420  31.2153750   8.4737420  63.2729880
  31.5224780   8.9450100  64.6785040  28.2365220   6.1329010  57.2246470
  27.3094500   6.0666390  57.4534940  28.3890040   7.0709140  57.1101710
  28.2234300   2.4046010  54.2213630  27.2837970   2.5659970  54.3066090
  28.5417560   3.1231690  53.6749620  34.7447060   7.0864530  64.1992660
  33.9165690   7.1557620  63.7242790  35.3397540   7.6718840  63.7308490
  32.2662510   7.6949310  57.7281720  31.6474930   7.3568860  57.0808020
  32.2486960   7.0509070  58.4360910  31.7089070   3.8733850  65.1447530
  31.2960250   4.6987560  65.3987520  30.9765020   3.2878890  64.9523890
  23.8421860   6.6593750  60.0066200  23.4378860   5.9471000  59.5112100
  23.9284980   6.3146990  60.8954240  24.3103560  10.3461310  62.1705410
  24.0131850   9.7406780  61.4913190  25.2603380  10.3838620  62.0594770
  22.5550480   3.4336960  63.7865240  23.1065070   3.5432300  63.0118490
  23.0693990   3.8074560  64.5020470  32.3989170  13.9193180  65.8328510
  31.9219730  14.7265370  65.6401120  31.7150960  13.2671510  65.9854720
  23.4021990  10.0843000  68.8213210  22.5050520  10.3082970  69.0686610
  23.4274860  10.2077940  67.8724610  30.4427210   6.9336120  54.7354470
  30.8820490   6.0958550  54.5892290  31.1555630   7.5665520  54.8218610
  22.2293210   6.9556320  67.3970580  22.0900980   7.8279120  67.7657980
  21.3474570   6.6129130  67.2518520  28.5522590  11.8732190  58.7035710
  28.9918500  12.6156520  58.2891100  28.4909480  12.1158760  59.6274670
  24.0273560  12.8978020  69.6055730  23.9988990  13.3020970  68.7384160
  23.8638530  11.9688380  69.4427330  20.5426490   5.5538730  57.5072850
  20.4224090   6.2800820  56.8954120  20.2327380   4.7841640  57.0300760
  35.9788380  13.6805120  70.9019900  36.4548100  14.1588010  71.5808980
  36.5995540  13.6122610  70.1765400  18.1811860   8.7253870  63.3141490
  18.2592280   8.8602640  62.3697210  18.7953540   8.0169760  63.5069610
  19.4259490  10.4254060  59.7247670  19.0187570  10.5668650  58.8701270
  20.3172500  10.1414220  59.5218880  35.3821630  10.8717970  68.0619910
  35.5084690  10.6329850  67.1437090  35.4243010  10.0402510  68.5341990
  29.2438370  14.5745970  66.6314720  29.7583040  14.4853980  67.4337150
  28.4007450  14.9205670  66.9242630  31.2192770  14.8601310  56.0598720
  31.0593910  14.5704250  56.9580550  31.0539480  14.0841440  55.5243950
  23.6981150  14.6399840  57.8370340  23.5223630  13.7235380  57.6238140
  22.8436890  14.9987130  58.0768140  30.9218900  12.3688870  54.6196720
  30.2284060  12.3666160  53.9599000  31.6641760  11.9448190  54.1890890
  30.4868830  13.9951580  58.6945210  30.9425780  13.2140960  59.0083830
  30.8261350  14.7058400  59.2386390  35.2345640   2.9250430  69.0269650
  34.6189910   3.4330100  68.4985110  34.9142060   2.0248760  68.9695590
  18.2371380   9.7668040  65.8535950  18.4002420   9.2973400  65.0355320
  18.7023830   9.2591600  66.5184790  32.2964470   2.9851270  67.6228500
  31.4458060   2.6857020  67.9437570  32.1366260   3.2293280  66.7112320
  29.3914180   4.4853020  69.7227290  29.7167590   3.6516770  69.3829520
  30.1794510   5.0081540  69.8705620  22.8004370   4.0207370  58.6177770
  22.5745290   3.8044540  59.5224390  22.0196900   4.4535830  58.2723740
  30.0302130   4.0270740  57.2168420  29.4311020   4.7506540  57.0332040
  30.5781740   3.9647520  56.4344870  25.2403580   4.9192950  69.2838040
  25.1447180   3.9787680  69.1338440  26.0835560   5.1408020  68.8886110
  28.6367000   2.6634280  59.2471700  29.0296570   2.9806480  58.4340390
  28.9983850   1.7846160  59.3616220  17.8601400   3.1955200  52.6804620
  17.7776070   4.1385960  52.8219610  17.5084460   3.0530110  51.8016970
  29.2222140   5.2540030  63.3422480  28.4903260   5.7626840  63.6912580
  28.8246480   4.4370010  63.0411260  25.6599530   1.9294230  61.7474970
  25.6635590   1.4884180  60.8979510  26.5550650   2.2511560  61.8546790
  25.7219680   2.9306310  54.7381730  25.8432500   2.8892790  55.6867550
  25.3368190   3.7930460  54.5828460  24.7341180   5.2407450  54.1365030
  24.1658080   4.7925700  53.5100940  25.4430180   5.6000230  53.6030180
  19.8110360   9.1419470  68.0131760  19.4265150   8.5013140  68.6114720
  20.1222550   9.8455590  68.5826490  25.9607500   5.9896010  63.4940380
  26.3277630   5.5154580  64.2401720  25.7712560   6.8637580  63.8348720
  23.7506870   5.0304650  65.8124590  23.4463940   5.9096630  66.0374950
  24.7053330   5.0904440  65.8482030  22.2788660   9.2365640  56.4091440
  21.5050920   8.6963260  56.2490160  23.0083290   8.7172250  56.0709200
  33.0376640   8.2331000  62.2017830  33.7575760   8.7286290  61.8113940
  32.8358460   7.5548890  61.5571700  28.4195440   8.3040060  68.0886830
  28.3532750   7.3835730  67.8344420  27.7900580   8.4015500  68.8031470
  31.2134970   3.9988610  54.6409380  32.1014590   4.3105840  54.4660720
  31.1840060   3.1260860  54.2489960  22.3226060   8.9046020  60.0470250
  22.8404730   8.1014280  59.9927140  21.8710080   8.8425160  60.8887080
  27.2095560  10.1712300  55.3197550  27.5511260  10.9154530  54.8240870
  26.3808270  10.4843420  55.6822380  19.8070600   5.8707390  66.9595950
  19.4485540   6.5361240  67.5469290  19.5125160   5.0390940  67.3308570
  23.0083720   6.3291630  69.8435500  22.7083860   6.4748810  68.9463320
  23.7794960   5.7696920  69.7508890  28.3512170  11.1260630  67.8390630
  28.3656710  10.1941590  67.6209540  27.6437270  11.2120390  68.4780400
  33.4849240   5.3100450  54.1089240  33.4012960   5.7414670  53.2585680
  34.2043430   5.7698800  54.5416060  34.5623380   7.7667970  67.1859210
  33.8371570   8.3596750  66.9888600  35.0898840   7.7591510  66.3872580
  34.5136490  12.1642710  56.8371370  33.8712650  11.5098330  57.1115090
  34.1267150  12.5697800  56.0612040  30.0922970   9.4928140  60.6843060
  30.4446790   8.8956270  60.0244430  29.2085300   9.1672370  60.8551310
  26.1786250  10.2525830  58.0913470  26.8657380  10.7995040  58.4721060
  25.3918670  10.7966560  58.1263080  18.3178650   5.8698650  53.5830550
  19.1873500   6.1523450  53.8666470  17.8268970   6.6834520  53.4679360
  25.4813460   7.2571860  57.7038830  25.9376240   8.0677110  57.9299020
  25.1301670   6.9395000  58.5357320  27.7846070  12.7678200  64.9331130
  28.4288290  12.9737580  65.6104550  28.1475510  12.0066600  64.4801980
  29.0578150  10.7710550  63.6508580  29.7000380  10.0703710  63.7640750
  29.5827500  11.5508990  63.4705470  32.9033870  11.0559170  53.3747720
  32.6771450  10.3389610  53.9672360  32.5130070  10.8071610  52.5369470
  30.8315770  11.5705450  66.8544640  31.1672010  12.1572140  67.5322560
  29.9116110  11.4398160  67.0842430  18.6849900  15.0826030  54.1492180
  19.0447540  15.6815370  53.4949450  18.5442240  15.6285920  54.9227210
  32.4850120   8.9731110  55.0361880  32.1971820   9.4343800  55.8239760
  33.2802290   8.5128880  55.3046100  18.6691760  13.3480890  68.6234580
  18.7782880  12.4075630  68.4829970  18.0172320  13.6135640  67.9748310
  26.6604350  11.6196780  70.0232700  26.3401220  10.9006020  70.5678390
  25.9862710  12.2951850  70.0968760  24.7018520  12.4657230  54.9665850
  24.6928620  13.1986920  54.3510360  23.7816880  12.2188810  55.0592810
  20.3025160   7.6872120  55.7112610  19.6953110   8.4271020  55.7207910
  20.7774510   7.7771480  54.8850810  27.6878120  12.5285470  53.6291040
  27.7890100  12.3249460  52.6993020  26.7879860  12.2743750  53.8338820
  25.2104010   3.0865830  57.6114940  24.5020160   3.5552170  58.0528550
  25.4948490   2.4287840  58.2460130  26.8359940   4.5062530  65.6107470
  27.3345190   4.9808350  66.2759320  26.9782890   3.5826050  65.8177500
  26.3296230  15.0471790  58.3238710  26.5837730  15.0093180  57.4018080
  25.3808710  14.9205120  58.3166960  32.3348810   5.9663670  59.8997220
  31.3938950   5.9813900  60.0744910  32.6492880   5.1799630  60.3457520
  22.3130450   7.6483270  53.4601180  23.0793720   7.5364630  54.0226610
  22.3905140   6.9521240  52.8077950  21.0077210   5.0808340  54.1434070
  21.0880800   4.1335850  54.2551470  21.8996960   5.4115220  54.2494730
  34.3374390  13.1372520  61.5751480  34.4621810  13.9603690  62.0475290
  35.2039950  12.9263250  61.2275630  21.8091920  15.2303730  61.2468610
  22.5454400  14.6819190  61.5177180  22.1932840  16.0959740  61.1074600
  18.6937400  11.2977300  57.1210120  17.7677180  11.5398440  57.1115530
  19.1593830  12.1251560  56.9994870  20.8150200  14.4149800  70.4354190
  21.6162930  14.7361850  70.8489590  20.3002020  14.0545380  71.1574100
  24.9194230  14.4034040  53.0694180  25.7122840  14.6922870  52.6175970
  24.3998580  13.9726210  52.3906660  29.6514830  10.5229670  70.3829600
  29.0452990  10.5461270  69.6425350  29.3468940   9.7912710  70.9196850
  31.0815200  14.2509960  68.9939010  32.0336950  14.1667980  68.9439250
  30.9343420  14.9151670  69.6672800  33.9724400  13.6304170  54.4930920
  33.6865910  13.2169310  53.6785100  33.7743950  14.5591880  54.3731440
  18.5348010   6.9023260  69.3790240  19.0387030   6.3230540  69.9506470
  17.7955430   7.1863490  69.9166610  25.4371630   9.6237450  52.9336530
  25.3322270   9.0089800  53.6597910  25.2695850   9.1003340  52.1499540
  25.5885950   8.3094250  68.9125760  24.8231620   8.8779250  68.8280430
  25.7701910   8.0170460  68.0193990  28.6774360   8.6857480  53.5378520
  28.1284460   9.1326780  54.1821260  29.2993620   8.1806730  54.0616190
  32.7309300  10.0399580  69.4700780  33.4718770  10.3775340  68.9668240
  31.9681980  10.2091640  68.9170550  20.5671090   5.0452850  70.2740310
  20.6076430   4.7466720  71.1825540  21.4216590   5.4460460  70.1147830
  24.3449480   7.6448400  55.4343820  24.7665900   7.4788270  56.2775210
  24.4700320   6.8348630  54.9398960  22.5076900   3.6244950  68.2414800
  21.9773360   3.1335900  67.6138140  23.1764970   4.0529150  67.7072730
  26.8577120   6.6686010  52.6820920  27.3782780   5.9535030  52.3162070
  27.5045520   7.3071880  52.9821430  31.4054960   8.0914410  68.0055990
  31.8195980   8.2459490  68.8546410  30.4705960   8.2169630  68.1681770
  31.8777130   5.4310570  70.0095140  32.4597900   4.6762890  69.9215620
  32.0538900   5.9618010  69.2326620  26.1670190   8.0434890  65.9751920
  26.5858300   8.8867620  65.8028160  25.2478820   8.1806930  65.7458700
  28.5034090   5.7751070  67.3589760  28.6230300   5.1792210  68.0984600
  29.3628090   5.8120760  66.9391060  30.8421990   6.3288260  65.9352270
  30.3157210   6.8530880  65.3317410  31.1853330   6.9615650  66.5662000
  23.2408380   3.7181630  52.3801980  23.0397440   2.8548990  52.7415320
  23.0700430   3.6314990  51.4423580  24.0177610  14.3487900  67.0909650
  23.4798700  15.0733960  66.7718350  24.2711570  13.8718240  66.3006990
  25.2702860   2.3172420  68.6165580  25.8602550   2.0088270  69.3043400
  24.4523100   1.8452170  68.7725480  26.8739820  15.5839110  67.3496300
  26.7998520  16.4874250  67.6568670  25.9718660  15.2651010  67.3218370
  27.4225150  14.7497620  54.9722660  28.3175940  15.0882590  54.9941420
  27.4542780  14.0277030  54.3446940  21.0621310  10.1224670  53.2009660
  21.4996180  10.6654340  53.8567240  21.5469040   9.2971620  53.2106000
  18.2767110  12.9113700  60.6529920  18.6070120  12.0434760  60.4208560
  18.7058110  13.1172220  61.4834880  22.8729030  11.2422710  58.3131890
  22.5724570  11.1187680  59.2135800  22.7666520  10.3831300  57.9047620
  18.7657320  13.7784290  63.3911550  18.3288310  13.9585090  64.2235700
  19.3335000  14.5358910  63.2493270  34.4019500  13.2801290  67.6788860
  33.8021490  13.3393850  66.9352780  34.5313400  12.3406270  67.8085710
  35.6420950  11.0219110  53.0158570  34.8113910  11.0895760  53.4865800
  35.8192780  11.9123230  52.7125430  35.0977410   7.7666590  55.5192770
  35.8596320   8.3363240  55.6252460  35.1131780   7.1993790  56.2901080
  18.5981750   6.2904520  59.7500430  17.9430590   6.0216160  59.1060130
  19.4359700   6.1809000  59.3002410  36.1037380   8.6216690  60.3634700
  36.4746210   7.8384010  59.9570670  36.7439310   9.3105790  60.1852000
  33.0871140  10.0053270  65.7765020  32.2730980  10.4350430  66.0390810
  33.4945340  10.6171680  65.1634070  35.1496580   8.0600960  52.6765290
  35.4245420   8.9679840  52.5484510  34.9607320   7.9963490  53.6127280
  35.0461920   5.9969950  57.6694720  34.6705520   5.2297880  57.2376010
  34.3165040   6.3792650  58.1569650  19.6357680   6.6757090  64.2903770
  20.0030720   6.5884490  65.1699790  19.0668500   5.9123640  64.1910630
  34.4361540   5.1441470  67.3034240  34.2047630   4.9154220  66.4032190
  34.6966090   6.0641020  67.2579130  19.1873680   3.5866180  68.1962190
  18.2929730   3.5532940  68.5355900  19.7271230   3.7852970  68.9613440
  17.8119830   3.5003450  55.6925760  16.9083910   3.7633650  55.5177420
  18.2960450   3.7714620  54.9125720  34.3212880   4.2227440  60.9701960
  34.8450360   3.7290090  60.3392130  34.9072300   4.3577800  61.7149530
  34.5002600   4.3067310  64.4921510  33.5505310   4.2730850  64.6066500
  34.6815610   5.2167420  64.2571280  20.3547040   2.5568990  53.6020140
  21.0638740   2.1352210  53.1167420  19.6386980   2.6244220  52.9703490
  33.8112850   3.4800790  56.9094370  34.3071970   3.2471660  57.6943250
  33.6128920   2.6412630  56.4932010  35.2400010   2.1161740  59.4432050
  35.1299290   1.9617780  60.3814320  36.0007600   1.5882680  59.2007460
  33.1447190  14.7571870  59.3033290  33.7406260  14.4356440  58.6267710
  33.4025340  14.2843690  60.0946560  21.0509760  11.1889780  69.4523920
  21.0079390  10.8182690  70.3338380  21.1820770  12.1267350  69.5925740
  24.7515790  12.7449370  65.0533640  24.5107150  13.0123930  64.1664160
  25.6918430  12.9155100  65.1084500  36.0119950  14.7643750  65.8544280
  35.5178230  15.1612620  65.1371410  35.4033240  14.1392960  66.2481560
  20.8897790  14.1352030  66.5721700  20.2958110  14.0036730  67.3111740
  20.8821630  13.2990170  66.1063800  33.6959400  15.4067170  63.1331020
  33.2362370  16.1582980  62.7589040  33.0671860  14.6873640  63.0745820
  20.5210020  11.5010410  65.5229740  19.7944080  10.8815700  65.4555690
  20.5819170  11.8951020  64.6527820  24.1255120  13.7155410  62.3079150
  24.6420140  13.1042770  61.7827410  24.7752500  14.2184190  62.7990160
  26.8650620  14.6063900  63.1348130  27.1528430  14.3518200  62.2581140
  27.3773840  14.0541260  63.7253700  18.8040020  14.8184800  58.7326500
  18.6362060  14.1855480  59.4308390  17.9374530  15.0244200  58.3820690
  20.4102720  13.5118030  56.1776640  19.8850340  13.8926060  55.4738600
  20.3347300  14.1368800  56.8986350  26.9322980  15.5280000  70.5016330
  27.8590290  15.2924270  70.5452290  26.9173410  16.3552000  70.0202360
  35.1668040  15.0705570  57.4990580  35.3420230  14.3843310  56.8551500
  34.4689610  15.5952620  57.1067250  23.0095690  15.4600410  55.0525890
  23.7414510  15.1759690  54.5049780  23.2689360  15.2213690  55.9425270
  22.1710480  11.5765140  55.0572220  21.5419360  12.0450240  55.6058050
  22.2858310  10.7314360  55.4918410  33.5000540  14.7549860  70.3257370
  34.2925860  14.2599090  70.1183330  33.7933690  15.4340000  70.9332980
  29.6260200   5.6270800  41.2073420  29.5454250   4.7125410  40.9365130
  29.2124620   6.1237870  40.5013130  27.7578240   7.4049820  43.0882690
  26.9820340   6.9250260  43.3781260  28.4091170   6.7255470  42.9138850
  21.7744070   7.7169630  43.9658450  20.9428950   7.4618340  44.3654960
  22.3825050   7.7880400  44.7016370  31.7785670  11.8110010  41.8681820
  31.3167200  11.0397250  42.1968990  32.5911220  11.8376080  42.3734270
  21.7545330  11.7509720  44.1616470  22.0573370  10.8607460  43.9826690
  22.4988920  12.3079940  43.9338720  20.1836020   2.6771520  37.7500840
  19.2952720   3.0187490  37.6480720  20.4677210   2.4771840  36.8581670
  18.1469030   5.2777170  43.6340540  18.7185140   4.5099370  43.6344180
  18.1470570   5.5765930  42.7247150  28.0048980  14.0968020  41.4885810
  27.3860420  14.5525520  40.9180250  28.8600760  14.2519480  41.0875510
  27.1987230  10.0807010  43.0952850  27.1295510   9.1396950  42.9341980
  27.9607090  10.1708420  43.6675420  28.2292400   2.8877390  43.3221780
  28.6057220   2.0149270  43.2095450  28.1311910   3.2236090  42.4312220
  20.0080570   3.1822030  44.0291810  20.6890680   3.4460400  44.6479210
  19.6928620   2.3422900  44.3629820  24.2005140   4.2289390  43.1164400
  24.7083360   4.7270360  43.7569420  24.7318380   3.4524590  42.9403760
  36.3016070   2.3994580  46.8193750  35.5968240   2.7876290  46.3008860
  36.5673990   3.0944870  47.4214680  28.8712330   8.9807260  38.8817720
  28.2529600   9.4456710  38.3180440  29.3835580   9.6734740  39.2987230
  23.7344090   8.5083130  45.5601320  23.4013470   9.1352050  46.2022390
  23.9110770   9.0345010  44.7802990  32.2478000   2.3228210  43.0277660
  31.5433570   2.6113100  43.6080770  32.6090160   3.1328320  42.6677220
  22.9463190  10.4763930  47.3750500  23.5637190  11.1515010  47.0934950
  22.0856310  10.8851910  47.2838000  18.2395530   9.6663790  36.2557350
  17.8623510  10.1550890  35.5242250  18.4968600  10.3389070  36.8863880
  33.8640780  11.9403340  45.2905140  33.1804300  12.6102450  45.2821810
  34.4035070  12.1383990  44.5250000  35.3164920   1.7683000  43.4186870
  34.3689830   1.8021980  43.5502300  35.6414910   2.5821950  43.8036230
  31.3999520  13.7847470  44.0050320  31.4126680  13.3809760  43.1372580
  30.8474740  14.5594760  43.9011750  32.6944940  10.5063690  39.0940490
  32.5841270   9.5638020  39.2189910  32.6913190  10.8679330  39.9803250
  30.7984960   8.6877310  45.3332930  31.2153750   8.4737420  44.4986390
  31.5224780   8.9450100  45.9041550  28.2365220   6.1329010  38.4502980
  27.3094500   6.0666390  38.6791450  28.3890040   7.0709140  38.3358220
  28.2234300   2.4046010  35.4470140  27.2837970   2.5659970  35.5322600
  28.5417560   3.1231690  34.9006130  34.7447060   7.0864530  45.4249170
  33.9165690   7.1557620  44.9499300  35.3397540   7.6718840  44.9565000
  32.2662510   7.6949310  38.9538230  31.6474930   7.3568860  38.3064530
  32.2486960   7.0509070  39.6617420  31.7089070   3.8733850  46.3704040
  31.2960250   4.6987560  46.6244030  30.9765020   3.2878890  46.1780400
  23.8421860   6.6593750  41.2322710  23.4378860   5.9471000  40.7368610
  23.9284980   6.3146990  42.1210750  24.3103560  10.3461310  43.3961920
  24.0131850   9.7406780  42.7169700  25.2603380  10.3838620  43.2851280
  22.5550480   3.4336960  45.0121750  23.1065070   3.5432300  44.2375000
  23.0693990   3.8074560  45.7276980  32.3989170  13.9193180  47.0585020
  31.9219730  14.7265370  46.8657630  31.7150960  13.2671510  47.2111230
  23.4021990  10.0843000  50.0469720  22.5050520  10.3082970  50.2943120
  23.4274860  10.2077940  49.0981120  30.4427210   6.9336120  35.9610980
  30.8820490   6.0958550  35.8148800  31.1555630   7.5665520  36.0475120
  22.2293210   6.9556320  48.6227090  22.0900980   7.8279120  48.9914490
  21.3474570   6.6129130  48.4775030  28.5522590  11.8732190  39.9292220
  28.9918500  12.6156520  39.5147610  28.4909480  12.1158760  40.8531180
  24.0273560  12.8978020  50.8312240  23.9988990  13.3020970  49.9640670
  23.8638530  11.9688380  50.6683840  20.5426490   5.5538730  38.7329360
  20.4224090   6.2800820  38.1210630  20.2327380   4.7841640  38.2557270
  35.9788380  13.6805120  52.1276410  36.4548100  14.1588010  52.8065490
  36.5995540  13.6122610  51.4021910  18.1811860   8.7253870  44.5398000
  18.2592280   8.8602640  43.5953720  18.7953540   8.0169760  44.7326120
  19.4259490  10.4254060  40.9504180  19.0187570  10.5668650  40.0957780
  20.3172500  10.1414220  40.7475390  35.3821630  10.8717970  49.2876420
  35.5084690  10.6329850  48.3693600  35.4243010  10.0402510  49.7598500
  29.2438370  14.5745970  47.8571230  29.7583040  14.4853980  48.6593660
  28.4007450  14.9205670  48.1499140  23.6981150  14.6399840  39.0626850
  23.5223630  13.7235380  38.8494650  22.8436890  14.9987130  39.3024650
  30.9218900  12.3688870  35.8453230  30.2284060  12.3666160  35.1855510
  31.6641760  11.9448190  35.4147400  30.4868830  13.9951580  39.9201720
  30.9425780  13.2140960  40.2340340  30.8261350  14.7058400  40.4642900
  35.2345640   2.9250430  50.2526160  34.6189910   3.4330100  49.7241620
  34.9142060   2.0248760  50.1952100  18.2371380   9.7668040  47.0792460
  18.4002420   9.2973400  46.2611830  18.7023830   9.2591600  47.7441300
  32.2964470   2.9851270  48.8485010  31.4458060   2.6857020  49.1694080
  32.1366260   3.2293280  47.9368830  29.3914180   4.4853020  50.9483800
  29.7167590   3.6516770  50.6086030  30.1794510   5.0081540  51.0962130
  22.8004370   4.0207370  39.8434280  22.5745290   3.8044540  40.7480900
  22.0196900   4.4535830  39.4980250  30.0302130   4.0270740  38.4424930
  29.4311020   4.7506540  38.2588550  30.5781740   3.9647520  37.6601380
  25.2403580   4.9192950  50.5094550  25.1447180   3.9787680  50.3594950
  26.0835560   5.1408020  50.1142620  28.6367000   2.6634280  40.4728210
  29.0296570   2.9806480  39.6596900  28.9983850   1.7846160  40.5872730
  17.8601400   3.1955200  33.9061130  17.7776070   4.1385960  34.0476120
  17.5084460   3.0530110  33.0273480  29.2222140   5.2540030  44.5678990
  28.4903260   5.7626840  44.9169090  28.8246480   4.4370010  44.2667770
  25.6599530   1.9294230  42.9731480  25.6635590   1.4884180  42.1236020
  26.5550650   2.2511560  43.0803300  25.7219680   2.9306310  35.9638240
  25.8432500   2.8892790  36.9124060  25.3368190   3.7930460  35.8084970
  24.7341180   5.2407450  35.3621540  24.1658080   4.7925700  34.7357450
  25.4430180   5.6000230  34.8286690  19.8110360   9.1419470  49.2388270
  19.4265150   8.5013140  49.8371230  20.1222550   9.8455590  49.8083000
  25.9607500   5.9896010  44.7196890  26.3277630   5.5154580  45.4658230
  25.7712560   6.8637580  45.0605230  23.7506870   5.0304650  47.0381100
  23.4463940   5.9096630  47.2631460  24.7053330   5.0904440  47.0738540
  22.2788660   9.2365640  37.6347950  21.5050920   8.6963260  37.4746670
  23.0083290   8.7172250  37.2965710  33.0376640   8.2331000  43.4274340
  33.7575760   8.7286290  43.0370450  32.8358460   7.5548890  42.7828210
  28.4195440   8.3040060  49.3143340  28.3532750   7.3835730  49.0600930
  27.7900580   8.4015500  50.0287980  31.2134970   3.9988610  35.8665890
  32.1014590   4.3105840  35.6917230  31.1840060   3.1260860  35.4746470
  22.3226060   8.9046020  41.2726760  22.8404730   8.1014280  41.2183650
  21.8710080   8.8425160  42.1143590  27.2095560  10.1712300  36.5454060
  27.5511260  10.9154530  36.0497380  26.3808270  10.4843420  36.9078890
  19.8070600   5.8707390  48.1852460  19.4485540   6.5361240  48.7725800
  19.5125160   5.0390940  48.5565080  23.0083720   6.3291630  51.0692010
  22.7083860   6.4748810  50.1719830  23.7794960   5.7696920  50.9765400
  28.3512170  11.1260630  49.0647140  28.3656710  10.1941590  48.8466050
  27.6437270  11.2120390  49.7036910  33.4849240   5.3100450  35.3345750
  33.4012960   5.7414670  34.4842190  34.2043430   5.7698800  35.7672570
  34.5623380   7.7667970  48.4115720  33.8371570   8.3596750  48.2145110
  35.0898840   7.7591510  47.6129090  34.5136490  12.1642710  38.0627880
  33.8712650  11.5098330  38.3371600  34.1267150  12.5697800  37.2868550
  30.0922970   9.4928140  41.9099570  30.4446790   8.8956270  41.2500940
  29.2085300   9.1672370  42.0807820  26.1786250  10.2525830  39.3169980
  26.8657380  10.7995040  39.6977570  25.3918670  10.7966560  39.3519590
  18.3178650   5.8698650  34.8087060  19.1873500   6.1523450  35.0922980
  17.8268970   6.6834520  34.6935870  25.4813460   7.2571860  38.9295340
  25.9376240   8.0677110  39.1555530  25.1301670   6.9395000  39.7613830
  27.7846070  12.7678200  46.1587640  28.4288290  12.9737580  46.8361060
  28.1475510  12.0066600  45.7058490  29.0578150  10.7710550  44.8765090
  29.7000380  10.0703710  44.9897260  29.5827500  11.5508990  44.6961980
  32.9033870  11.0559170  34.6004230  32.6771450  10.3389610  35.1928870
  32.5130070  10.8071610  33.7625980  30.8315770  11.5705450  48.0801150
  31.1672010  12.1572140  48.7579070  29.9116110  11.4398160  48.3098940
  18.6849900  15.0826030  35.3748690  19.0447540  15.6815370  34.7205960
  18.5442240  15.6285920  36.1483720  32.4850120   8.9731110  36.2618390
  32.1971820   9.4343800  37.0496270  33.2802290   8.5128880  36.5302610
  18.6691760  13.3480890  49.8491090  18.7782880  12.4075630  49.7086480
  18.0172320  13.6135640  49.2004820  26.6604350  11.6196780  51.2489210
  26.3401220  10.9006020  51.7934900  25.9862710  12.2951850  51.3225270
  24.7018520  12.4657230  36.1922360  24.6928620  13.1986920  35.5766870
  23.7816880  12.2188810  36.2849320  20.3025160   7.6872120  36.9369120
  19.6953110   8.4271020  36.9464420  20.7774510   7.7771480  36.1107320
  27.6878120  12.5285470  34.8547550  27.7890100  12.3249460  33.9249530
  26.7879860  12.2743750  35.0595330  25.2104010   3.0865830  38.8371450
  24.5020160   3.5552170  39.2785060  25.4948490   2.4287840  39.4716640
  26.8359940   4.5062530  46.8363980  27.3345190   4.9808350  47.5015830
  26.9782890   3.5826050  47.0434010  26.3296230  15.0471790  39.5495220
  26.5837730  15.0093180  38.6274590  25.3808710  14.9205120  39.5423470
  32.3348810   5.9663670  41.1253730  31.3938950   5.9813900  41.3001420
  32.6492880   5.1799630  41.5714030  22.3130450   7.6483270  34.6857690
  23.0793720   7.5364630  35.2483120  22.3905140   6.9521240  34.0334460
  21.0077210   5.0808340  35.3690580  21.0880800   4.1335850  35.4807980
  21.8996960   5.4115220  35.4751240  34.3374390  13.1372520  42.8007990
  34.4621810  13.9603690  43.2731800  35.2039950  12.9263250  42.4532140
  21.8091920  15.2303730  42.4725120  22.5454400  14.6819190  42.7433690
  22.1932840  16.0959740  42.3331110  18.6937400  11.2977300  38.3466630
  17.7677180  11.5398440  38.3372040  19.1593830  12.1251560  38.2251380
  20.8150200  14.4149800  51.6610700  21.6162930  14.7361850  52.0746100
  20.3002020  14.0545380  52.3830610  24.9194230  14.4034040  34.2950690
  25.7122840  14.6922870  33.8432480  24.3998580  13.9726210  33.6163170
  29.6514830  10.5229670  51.6086110  29.0452990  10.5461270  50.8681860
  29.3468940   9.7912710  52.1453360  31.0815200  14.2509960  50.2195520
  32.0336950  14.1667980  50.1695760  30.9343420  14.9151670  50.8929310
  33.9724400  13.6304170  35.7187430  33.6865910  13.2169310  34.9041610
  33.7743950  14.5591880  35.5987950  18.5348010   6.9023260  50.6046750
  19.0387030   6.3230540  51.1762980  17.7955430   7.1863490  51.1423120
  25.4371630   9.6237450  34.1593040  25.3322270   9.0089800  34.8854420
  25.2695850   9.1003340  33.3756050  25.5885950   8.3094250  50.1382270
  24.8231620   8.8779250  50.0536940  25.7701910   8.0170460  49.2450500
  28.6774360   8.6857480  34.7635030  28.1284460   9.1326780  35.4077770
  29.2993620   8.1806730  35.2872700  32.7309300  10.0399580  50.6957290
  33.4718770  10.3775340  50.1924750  31.9681980  10.2091640  50.1427060
  20.5671090   5.0452850  51.4996820  20.6076430   4.7466720  52.4082050
  21.4216590   5.4460460  51.3404340  24.3449480   7.6448400  36.6600330
  24.7665900   7.4788270  37.5031720  24.4700320   6.8348630  36.1655470
  22.5076900   3.6244950  49.4671310  21.9773360   3.1335900  48.8394650
  23.1764970   4.0529150  48.9329240  26.8577120   6.6686010  33.9077430
  27.3782780   5.9535030  33.5418580  27.5045520   7.3071880  34.2077940
  31.4054960   8.0914410  49.2312500  31.8195980   8.2459490  50.0802920
  30.4705960   8.2169630  49.3938280  31.8777130   5.4310570  51.2351650
  32.4597900   4.6762890  51.1472130  32.0538900   5.9618010  50.4583130
  26.1670190   8.0434890  47.2008430  26.5858300   8.8867620  47.0284670
  25.2478820   8.1806930  46.9715210  28.5034090   5.7751070  48.5846270
  28.6230300   5.1792210  49.3241110  29.3628090   5.8120760  48.1647570
  30.8421990   6.3288260  47.1608780  30.3157210   6.8530880  46.5573920
  31.1853330   6.9615650  47.7918510  23.2408380   3.7181630  33.6058490
  23.0397440   2.8548990  33.9671830  23.0700430   3.6314990  32.6680090
  24.0177610  14.3487900  48.3166160  23.4798700  15.0733960  47.9974860
  24.2711570  13.8718240  47.5263500  25.2702860   2.3172420  49.8422090
  25.8602550   2.0088270  50.5299910  24.4523100   1.8452170  49.9981990
  26.8739820  15.5839110  48.5752810  26.7998520  16.4874250  48.8825180
  25.9718660  15.2651010  48.5474880  27.4225150  14.7497620  36.1979170
  28.3175940  15.0882590  36.2197930  27.4542780  14.0277030  35.5703450
  21.0621310  10.1224670  34.4266170  21.4996180  10.6654340  35.0823750
  21.5469040   9.2971620  34.4362510  18.2767110  12.9113700  41.8786430
  18.6070120  12.0434760  41.6465070  18.7058110  13.1172220  42.7091390
  22.8729030  11.2422710  39.5388400  22.5724570  11.1187680  40.4392310
  22.7666520  10.3831300  39.1304130  18.7657320  13.7784290  44.6168060
  18.3288310  13.9585090  45.4492210  19.3335000  14.5358910  44.4749780
  34.4019500  13.2801290  48.9045370  33.8021490  13.3393850  48.1609290
  34.5313400  12.3406270  49.0342220  35.6420950  11.0219110  34.2415080
  34.8113910  11.0895760  34.7122310  35.8192780  11.9123230  33.9381940
  35.0977410   7.7666590  36.7449280  35.8596320   8.3363240  36.8508970
  35.1131780   7.1993790  37.5157590  18.5981750   6.2904520  40.9756940
  17.9430590   6.0216160  40.3316640  19.4359700   6.1809000  40.5258920
  36.1037380   8.6216690  41.5891210  36.4746210   7.8384010  41.1827180
  36.7439310   9.3105790  41.4108510  33.0871140  10.0053270  47.0021530
  32.2730980  10.4350430  47.2647320  33.4945340  10.6171680  46.3890580
  35.1496580   8.0600960  33.9021800  35.4245420   8.9679840  33.7741020
  34.9607320   7.9963490  34.8383790  35.0461920   5.9969950  38.8951230
  34.6705520   5.2297880  38.4632520  34.3165040   6.3792650  39.3826160
  19.6357680   6.6757090  45.5160280  20.0030720   6.5884490  46.3956300
  19.0668500   5.9123640  45.4167140  34.4361540   5.1441470  48.5290750
  34.2047630   4.9154220  47.6288700  34.6966090   6.0641020  48.4835640
  19.1873680   3.5866180  49.4218700  18.2929730   3.5532940  49.7612410
  19.7271230   3.7852970  50.1869950  17.8119830   3.5003450  36.9182270
  16.9083910   3.7633650  36.7433930  18.2960450   3.7714620  36.1382230
  34.3212880   4.2227440  42.1958470  34.8450360   3.7290090  41.5648640
  34.9072300   4.3577800  42.9406040  34.5002600   4.3067310  45.7178020
  33.5505310   4.2730850  45.8323010  34.6815610   5.2167420  45.4827790
  20.3547040   2.5568990  34.8276650  21.0638740   2.1352210  34.3423930
  19.6386980   2.6244220  34.1960000  33.8112850   3.4800790  38.1350880
  34.3071970   3.2471660  38.9199760  33.6128920   2.6412630  37.7188520
  35.2400010   2.1161740  40.6688560  35.1299290   1.9617780  41.6070830
  36.0007600   1.5882680  40.4263970  33.1447190  14.7571870  40.5289800
  33.7406260  14.4356440  39.8524220  33.4025340  14.2843690  41.3203070
  21.0509760  11.1889780  50.6780430  21.0079390  10.8182690  51.5594890
  21.1820770  12.1267350  50.8182250  24.7515790  12.7449370  46.2790150
  24.5107150  13.0123930  45.3920670  25.6918430  12.9155100  46.3341010
  36.0119950  14.7643750  47.0800790  35.5178230  15.1612620  46.3627920
  35.4033240  14.1392960  47.4738070  20.8897790  14.1352030  47.7978210
  20.2958110  14.0036730  48.5368250  20.8821630  13.2990170  47.3320310
  33.6959400  15.4067170  44.3587530  33.2362370  16.1582980  43.9845550
  33.0671860  14.6873640  44.3002330  20.5210020  11.5010410  46.7486250
  19.7944080  10.8815700  46.6812200  20.5819170  11.8951020  45.8784330
  24.1255120  13.7155410  43.5335660  24.6420140  13.1042770  43.0083920
  24.7752500  14.2184190  44.0246670  26.8650620  14.6063900  44.3604640
  27.1528430  14.3518200  43.4837650  27.3773840  14.0541260  44.9510210
  18.8040020  14.8184800  39.9583010  18.6362060  14.1855480  40.6564900
  17.9374530  15.0244200  39.6077200  20.4102720  13.5118030  37.4033150
  19.8850340  13.8926060  36.6995110  20.3347300  14.1368800  38.1242860
  26.9322980  15.5280000  51.7272840  27.8590290  15.2924270  51.7708800
  26.9173410  16.3552000  51.2458870  35.1668040  15.0705570  38.7247090
  35.3420230  14.3843310  38.0808010  34.4689610  15.5952620  38.3323760
  23.0095690  15.4600410  36.2782400  23.7414510  15.1759690  35.7306290
  23.2689360  15.2213690  37.1681780  22.1710480  11.5765140  36.2828730
  21.5419360  12.0450240  36.8314560  22.2858310  10.7314360  36.7174920
  33.5000540  14.7549860  51.5513880  34.2925860  14.2599090  51.3439840
  33.7933690  15.4340000  52.1589490  29.6260200   5.6270800  22.4329930
  29.5454250   4.7125410  22.1621640  29.2124620   6.1237870  21.7269640
  27.7578240   7.4049820  24.3139200  26.9820340   6.9250260  24.6037770
  28.4091170   6.7255470  24.1395360  21.7744070   7.7169630  25.1914960
  20.9428950   7.4618340  25.5911470  22.3825050   7.7880400  25.9272880
  31.7785670  11.8110010  23.0938330  31.3167200  11.0397250  23.4225500
  32.5911220  11.8376080  23.5990780  21.7545330  11.7509720  25.3872980
  22.0573370  10.8607460  25.2083200  22.4988920  12.3079940  25.1595230
  20.1836020   2.6771520  18.9757350  19.2952720   3.0187490  18.8737230
  20.4677210   2.4771840  18.0838180  18.1469030   5.2777170  24.8597050
  18.7185140   4.5099370  24.8600690  18.1470570   5.5765930  23.9503660
  28.0048980  14.0968020  22.7142320  27.3860420  14.5525520  22.1436760
  28.8600760  14.2519480  22.3132020  27.1987230  10.0807010  24.3209360
  27.1295510   9.1396950  24.1598490  27.9607090  10.1708420  24.8931930
  28.2292400   2.8877390  24.5478290  28.6057220   2.0149270  24.4351960
  28.1311910   3.2236090  23.6568730  20.0080570   3.1822030  25.2548320
  20.6890680   3.4460400  25.8735720  19.6928620   2.3422900  25.5886330
  24.2005140   4.2289390  24.3420910  24.7083360   4.7270360  24.9825930
  24.7318380   3.4524590  24.1660270  36.3016070   2.3994580  28.0450260
  35.5968240   2.7876290  27.5265370  36.5673990   3.0944870  28.6471190
  28.8712330   8.9807260  20.1074230  28.2529600   9.4456710  19.5436950
  29.3835580   9.6734740  20.5243740  23.7344090   8.5083130  26.7857830
  23.4013470   9.1352050  27.4278900  23.9110770   9.0345010  26.0059500
  32.2478000   2.3228210  24.2534170  31.5433570   2.6113100  24.8337280
  32.6090160   3.1328320  23.8933730  22.9463190  10.4763930  28.6007010
  23.5637190  11.1515010  28.3191460  22.0856310  10.8851910  28.5094510
  18.2395530   9.6663790  17.4813860  17.8623510  10.1550890  16.7498760
  18.4968600  10.3389070  18.1120390  33.8640780  11.9403340  26.5161650
  33.1804300  12.6102450  26.5078320  34.4035070  12.1383990  25.7506510
  35.3164920   1.7683000  24.6443380  34.3689830   1.8021980  24.7758810
  35.6414910   2.5821950  25.0292740  31.3999520  13.7847470  25.2306830
  31.4126680  13.3809760  24.3629090  30.8474740  14.5594760  25.1268260
  32.6944940  10.5063690  20.3197000  32.5841270   9.5638020  20.4446420
  32.6913190  10.8679330  21.2059760  30.7984960   8.6877310  26.5589440
  31.2153750   8.4737420  25.7242900  31.5224780   8.9450100  27.1298060
  28.2365220   6.1329010  19.6759490  27.3094500   6.0666390  19.9047960
  28.3890040   7.0709140  19.5614730  28.2234300   2.4046010  16.6726650
  27.2837970   2.5659970  16.7579110  28.5417560   3.1231690  16.1262640
  34.7447060   7.0864530  26.6505680  33.9165690   7.1557620  26.1755810
  35.3397540   7.6718840  26.1821510  32.2662510   7.6949310  20.1794740
  31.6474930   7.3568860  19.5321040  32.2486960   7.0509070  20.8873930
  31.7089070   3.8733850  27.5960550  31.2960250   4.6987560  27.8500540
  30.9765020   3.2878890  27.4036910  23.8421860   6.6593750  22.4579220
  23.4378860   5.9471000  21.9625120  23.9284980   6.3146990  23.3467260
  24.3103560  10.3461310  24.6218430  24.0131850   9.7406780  23.9426210
  25.2603380  10.3838620  24.5107790  22.5550480   3.4336960  26.2378260
  23.1065070   3.5432300  25.4631510  23.0693990   3.8074560  26.9533490
  23.4021990  10.0843000  31.2726230  22.5050520  10.3082970  31.5199630
  23.4274860  10.2077940  30.3237630  30.4427210   6.9336120  17.1867490
  30.8820490   6.0958550  17.0405310  31.1555630   7.5665520  17.2731630
  22.2293210   6.9556320  29.8483600  22.0900980   7.8279120  30.2171000
  21.3474570   6.6129130  29.7031540  28.5522590  11.8732190  21.1548730
  28.9918500  12.6156520  20.7404120  28.4909480  12.1158760  22.0787690
  24.0273560  12.8978020  32.0568750  23.9988990  13.3020970  31.1897180
  23.8638530  11.9688380  31.8940350  20.5426490   5.5538730  19.9585870
  20.4224090   6.2800820  19.3467140  20.2327380   4.7841640  19.4813780
  18.1811860   8.7253870  25.7654510  18.2592280   8.8602640  24.8210230
  18.7953540   8.0169760  25.9582630  19.4259490  10.4254060  22.1760690
  19.0187570  10.5668650  21.3214290  20.3172500  10.1414220  21.9731900
  31.2192770  14.8601310  18.5111740  31.0593910  14.5704250  19.4093570
  31.0539480  14.0841440  17.9756970  23.6981150  14.6399840  20.2883360
  23.5223630  13.7235380  20.0751160  22.8436890  14.9987130  20.5281160
  30.9218900  12.3688870  17.0709740  30.2284060  12.3666160  16.4112020
  31.6641760  11.9448190  16.6403910  30.4868830  13.9951580  21.1458230
  30.9425780  13.2140960  21.4596850  30.8261350  14.7058400  21.6899410
  35.2345640   2.9250430  31.4782670  34.6189910   3.4330100  30.9498130
  34.9142060   2.0248760  31.4208610  18.2371380   9.7668040  28.3048970
  18.4002420   9.2973400  27.4868340  18.7023830   9.2591600  28.9697810
  32.2964470   2.9851270  30.0741520  31.4458060   2.6857020  30.3950590
  32.1366260   3.2293280  29.1625340  29.3914180   4.4853020  32.1740310
  29.7167590   3.6516770  31.8342540  30.1794510   5.0081540  32.3218640
  22.8004370   4.0207370  21.0690790  22.5745290   3.8044540  21.9737410
  22.0196900   4.4535830  20.7236760  30.0302130   4.0270740  19.6681440
  29.4311020   4.7506540  19.4845060  30.5781740   3.9647520  18.8857890
  25.2403580   4.9192950  31.7351060  25.1447180   3.9787680  31.5851460
  26.0835560   5.1408020  31.3399130  28.6367000   2.6634280  21.6984720
  29.0296570   2.9806480  20.8853410  28.9983850   1.7846160  21.8129240
  17.8601400   3.1955200  15.1317640  17.7776070   4.1385960  15.2732630
  17.5084460   3.0530110  14.2529990  29.2222140   5.2540030  25.7935500
  28.4903260   5.7626840  26.1425600  28.8246480   4.4370010  25.4924280
  25.6599530   1.9294230  24.1987990  25.6635590   1.4884180  23.3492530
  26.5550650   2.2511560  24.3059810  25.7219680   2.9306310  17.1894750
  25.8432500   2.8892790  18.1380570  25.3368190   3.7930460  17.0341480
  24.7341180   5.2407450  16.5878050  24.1658080   4.7925700  15.9613960
  25.4430180   5.6000230  16.0543200  19.8110360   9.1419470  30.4644780
  19.4265150   8.5013140  31.0627740  20.1222550   9.8455590  31.0339510
  25.9607500   5.9896010  25.9453400  26.3277630   5.5154580  26.6914740
  25.7712560   6.8637580  26.2861740  23.7506870   5.0304650  28.2637610
  23.4463940   5.9096630  28.4887970  24.7053330   5.0904440  28.2995050
  22.2788660   9.2365640  18.8604460  21.5050920   8.6963260  18.7003180
  23.0083290   8.7172250  18.5222220  33.0376640   8.2331000  24.6530850
  33.7575760   8.7286290  24.2626960  32.8358460   7.5548890  24.0084720
  28.4195440   8.3040060  30.5399850  28.3532750   7.3835730  30.2857440
  27.7900580   8.4015500  31.2544490  31.2134970   3.9988610  17.0922400
  32.1014590   4.3105840  16.9173740  31.1840060   3.1260860  16.7002980
  22.3226060   8.9046020  22.4983270  22.8404730   8.1014280  22.4440160
  21.8710080   8.8425160  23.3400100  27.2095560  10.1712300  17.7710570
  27.5511260  10.9154530  17.2753890  26.3808270  10.4843420  18.1335400
  19.8070600   5.8707390  29.4108970  19.4485540   6.5361240  29.9982310
  19.5125160   5.0390940  29.7821590  23.0083720   6.3291630  32.2948520
  22.7083860   6.4748810  31.3976340  23.7794960   5.7696920  32.2021910
  28.3512170  11.1260630  30.2903650  28.3656710  10.1941590  30.0722560
  27.6437270  11.2120390  30.9293420  33.4849240   5.3100450  16.5602260
  33.4012960   5.7414670  15.7098700  34.2043430   5.7698800  16.9929080
  34.5623380   7.7667970  29.6372230  33.8371570   8.3596750  29.4401620
  35.0898840   7.7591510  28.8385600  34.5136490  12.1642710  19.2884390
  33.8712650  11.5098330  19.5628110  34.1267150  12.5697800  18.5125060
  30.0922970   9.4928140  23.1356080  30.4446790   8.8956270  22.4757450
  29.2085300   9.1672370  23.3064330  26.1786250  10.2525830  20.5426490
  26.8657380  10.7995040  20.9234080  25.3918670  10.7966560  20.5776100
  18.3178650   5.8698650  16.0343570  19.1873500   6.1523450  16.3179490
  17.8268970   6.6834520  15.9192380  25.4813460   7.2571860  20.1551850
  25.9376240   8.0677110  20.3812040  25.1301670   6.9395000  20.9870340
  27.7846070  12.7678200  27.3844150  28.4288290  12.9737580  28.0617570
  28.1475510  12.0066600  26.9315000  29.0578150  10.7710550  26.1021600
  29.7000380  10.0703710  26.2153770  29.5827500  11.5508990  25.9218490
  32.9033870  11.0559170  15.8260740  32.6771450  10.3389610  16.4185380
  32.5130070  10.8071610  14.9882490  30.8315770  11.5705450  29.3057660
  31.1672010  12.1572140  29.9835580  29.9116110  11.4398160  29.5355450
  18.6849900  15.0826030  16.6005200  19.0447540  15.6815370  15.9462470
  18.5442240  15.6285920  17.3740230  32.4850120   8.9731110  17.4874900
  32.1971820   9.4343800  18.2752780  33.2802290   8.5128880  17.7559120
  18.6691760  13.3480890  31.0747600  18.7782880  12.4075630  30.9342990
  18.0172320  13.6135640  30.4261330  26.6604350  11.6196780  32.4745720
  26.3401220  10.9006020  33.0191410  25.9862710  12.2951850  32.5481780
  24.7018520  12.4657230  17.4178870  24.6928620  13.1986920  16.8023380
  23.7816880  12.2188810  17.5105830  20.3025160   7.6872120  18.1625630
  19.6953110   8.4271020  18.1720930  20.7774510   7.7771480  17.3363830
  27.6878120  12.5285470  16.0804060  27.7890100  12.3249460  15.1506040
  26.7879860  12.2743750  16.2851840  25.2104010   3.0865830  20.0627960
  24.5020160   3.5552170  20.5041570  25.4948490   2.4287840  20.6973150
  26.8359940   4.5062530  28.0620490  27.3345190   4.9808350  28.7272340
  26.9782890   3.5826050  28.2690520  26.3296230  15.0471790  20.7751730
  26.5837730  15.0093180  19.8531100  25.3808710  14.9205120  20.7679980
  32.3348810   5.9663670  22.3510240  31.3938950   5.9813900  22.5257930
  32.6492880   5.1799630  22.7970540  22.3130450   7.6483270  15.9114200
  23.0793720   7.5364630  16.4739630  22.3905140   6.9521240  15.2590970
  21.0077210   5.0808340  16.5947090  21.0880800   4.1335850  16.7064490
  21.8996960   5.4115220  16.7007750  34.3374390  13.1372520  24.0264500
  34.4621810  13.9603690  24.4988310  35.2039950  12.9263250  23.6788650
  21.8091920  15.2303730  23.6981630  22.5454400  14.6819190  23.9690200
  22.1932840  16.0959740  23.5587620  18.6937400  11.2977300  19.5723140
  17.7677180  11.5398440  19.5628550  19.1593830  12.1251560  19.4507890
  20.8150200  14.4149800  32.8867210  21.6162930  14.7361850  33.3002610
  20.3002020  14.0545380  33.6087120  24.9194230  14.4034040  15.5207200
  25.7122840  14.6922870  15.0688990  24.3998580  13.9726210  14.8419680
  29.6514830  10.5229670  32.8342620  29.0452990  10.5461270  32.0938370
  29.3468940   9.7912710  33.3709870  33.9724400  13.6304170  16.9443940
  33.6865910  13.2169310  16.1298120  33.7743950  14.5591880  16.8244460
  18.5348010   6.9023260  31.8303260  19.0387030   6.3230540  32.4019490
  17.7955430   7.1863490  32.3679630  25.4371630   9.6237450  15.3849550
  25.3322270   9.0089800  16.1110930  25.2695850   9.1003340  14.6012560
  25.5885950   8.3094250  31.3638780  24.8231620   8.8779250  31.2793450
  25.7701910   8.0170460  30.4707010  28.6774360   8.6857480  15.9891540
  28.1284460   9.1326780  16.6334280  29.2993620   8.1806730  16.5129210
  32.7309300  10.0399580  31.9213800  33.4718770  10.3775340  31.4181260
  31.9681980  10.2091640  31.3683570  20.5671090   5.0452850  32.7253330
  20.6076430   4.7466720  33.6338560  21.4216590   5.4460460  32.5660850
  24.3449480   7.6448400  17.8856840  24.7665900   7.4788270  18.7288230
  24.4700320   6.8348630  17.3911980  22.5076900   3.6244950  30.6927820
  21.9773360   3.1335900  30.0651160  23.1764970   4.0529150  30.1585750
  26.8577120   6.6686010  15.1333940  27.3782780   5.9535030  14.7675090
  27.5045520   7.3071880  15.4334450  31.4054960   8.0914410  30.4569010
  31.8195980   8.2459490  31.3059430  30.4705960   8.2169630  30.6194790
  31.8777130   5.4310570  32.4608160  32.4597900   4.6762890  32.3728640
  32.0538900   5.9618010  31.6839640  26.1670190   8.0434890  28.4264940
  26.5858300   8.8867620  28.2541180  25.2478820   8.1806930  28.1971720
  28.5034090   5.7751070  29.8102780  28.6230300   5.1792210  30.5497620
  29.3628090   5.8120760  29.3904080  30.8421990   6.3288260  28.3865290
  30.3157210   6.8530880  27.7830430  31.1853330   6.9615650  29.0175020
  23.2408380   3.7181630  14.8315000  23.0397440   2.8548990  15.1928340
  23.0700430   3.6314990  13.8936600  24.0177610  14.3487900  29.5422670
  23.4798700  15.0733960  29.2231370  24.2711570  13.8718240  28.7520010
  25.2702860   2.3172420  31.0678600  25.8602550   2.0088270  31.7556420
  24.4523100   1.8452170  31.2238500  27.4225150  14.7497620  17.4235680
  28.3175940  15.0882590  17.4454440  27.4542780  14.0277030  16.7959960
  21.0621310  10.1224670  15.6522680  21.4996180  10.6654340  16.3080260
  21.5469040   9.2971620  15.6619020  18.2767110  12.9113700  23.1042940
  18.6070120  12.0434760  22.8721580  18.7058110  13.1172220  23.9347900
  22.8729030  11.2422710  20.7644910  22.5724570  11.1187680  21.6648820
  22.7666520  10.3831300  20.3560640  18.7657320  13.7784290  25.8424570
  18.3288310  13.9585090  26.6748720  19.3335000  14.5358910  25.7006290
  35.6420950  11.0219110  15.4671590  34.8113910  11.0895760  15.9378820
  35.8192780  11.9123230  15.1638450  35.0977410   7.7666590  17.9705790
  35.8596320   8.3363240  18.0765480  35.1131780   7.1993790  18.7414100
  18.5981750   6.2904520  22.2013450  17.9430590   6.0216160  21.5573150
  19.4359700   6.1809000  21.7515430  36.1037380   8.6216690  22.8147720
  36.4746210   7.8384010  22.4083690  36.7439310   9.3105790  22.6365020
  33.0871140  10.0053270  28.2278040  32.2730980  10.4350430  28.4903830
  33.4945340  10.6171680  27.6147090  35.1496580   8.0600960  15.1278310
  35.4245420   8.9679840  14.9997530  34.9607320   7.9963490  16.0640300
  35.0461920   5.9969950  20.1207740  34.6705520   5.2297880  19.6889030
  34.3165040   6.3792650  20.6082670  19.6357680   6.6757090  26.7416790
  20.0030720   6.5884490  27.6212810  19.0668500   5.9123640  26.6423650
  34.4361540   5.1441470  29.7547260  34.2047630   4.9154220  28.8545210
  34.6966090   6.0641020  29.7092150  19.1873680   3.5866180  30.6475210
  18.2929730   3.5532940  30.9868920  19.7271230   3.7852970  31.4126460
  17.8119830   3.5003450  18.1438780  16.9083910   3.7633650  17.9690440
  18.2960450   3.7714620  17.3638740  34.3212880   4.2227440  23.4214980
  34.8450360   3.7290090  22.7905150  34.9072300   4.3577800  24.1662550
  34.5002600   4.3067310  26.9434530  33.5505310   4.2730850  27.0579520
  34.6815610   5.2167420  26.7084300  20.3547040   2.5568990  16.0533160
  21.0638740   2.1352210  15.5680440  19.6386980   2.6244220  15.4216510
  33.8112850   3.4800790  19.3607390  34.3071970   3.2471660  20.1456270
  33.6128920   2.6412630  18.9445030  35.2400010   2.1161740  21.8945070
  35.1299290   1.9617780  22.8327340  36.0007600   1.5882680  21.6520480
  21.0509760  11.1889780  31.9036940  21.0079390  10.8182690  32.7851400
  21.1820770  12.1267350  32.0438760  24.7515790  12.7449370  27.5046660
  24.5107150  13.0123930  26.6177180  25.6918430  12.9155100  27.5597520
  20.8897790  14.1352030  29.0234720  20.2958110  14.0036730  29.7624760
  20.8821630  13.2990170  28.5576820  20.5210020  11.5010410  27.9742760
  19.7944080  10.8815700  27.9068710  20.5819170  11.8951020  27.1040840
  24.1255120  13.7155410  24.7592170  24.6420140  13.1042770  24.2340430
  24.7752500  14.2184190  25.2503180  18.8040020  14.8184800  21.1839520
  18.6362060  14.1855480  21.8821410  17.9374530  15.0244200  20.8333710
  20.4102720  13.5118030  18.6289660  19.8850340  13.8926060  17.9251620
  20.3347300  14.1368800  19.3499370  26.9322980  15.5280000  32.9529350
  27.8590290  15.2924270  32.9965310  26.9173410  16.3552000  32.4715380
  35.1668040  15.0705570  19.9503600  35.3420230  14.3843310  19.3064520
  34.4689610  15.5952620  19.5580270  23.0095690  15.4600410  17.5038910
  23.7414510  15.1759690  16.9562800  23.2689360  15.2213690  18.3938290
  22.1710480  11.5765140  17.5085240  21.5419360  12.0450240  18.0571070
  22.2858310  10.7314360  17.9431430  29.6260200   5.6270800   3.6586440
  29.5454250   4.7125410   3.3878150  29.2124620   6.1237870   2.9526150
  27.7578240   7.4049820   5.5395710  26.9820340   6.9250260   5.8294280
  28.4091170   6.7255470   5.3651870  21.7744070   7.7169630   6.4171470
  20.9428950   7.4618340   6.8167980  22.3825050   7.7880400   7.1529390
  31.7785670  11.8110010   4.3194840  31.3167200  11.0397250   4.6482010
  32.5911220  11.8376080   4.8247290  21.7545330  11.7509720   6.6129490
  22.0573370  10.8607460   6.4339710  22.4988920  12.3079940   6.3851740
  18.1469030   5.2777170   6.0853560  18.7185140   4.5099370   6.0857200
  18.1470570   5.5765930   5.1760170  28.0048980  14.0968020   3.9398830
  27.3860420  14.5525520   3.3693270  28.8600760  14.2519480   3.5388530
  27.1987230  10.0807010   5.5465870  27.1295510   9.1396950   5.3855000
  27.9607090  10.1708420   6.1188440  28.2292400   2.8877390   5.7734800
  28.6057220   2.0149270   5.6608470  28.1311910   3.2236090   4.8825240
  20.0080570   3.1822030   6.4804830  20.6890680   3.4460400   7.0992230
  19.6928620   2.3422900   6.8142840  24.2005140   4.2289390   5.5677420
  24.7083360   4.7270360   6.2082440  24.7318380   3.4524590   5.3916780
  36.3016070   2.3994580   9.2706770  35.5968240   2.7876290   8.7521880
  36.5673990   3.0944870   9.8727700  23.7344090   8.5083130   8.0114340
  23.4013470   9.1352050   8.6535410  23.9110770   9.0345010   7.2316010
  32.2478000   2.3228210   5.4790680  31.5433570   2.6113100   6.0593790
  32.6090160   3.1328320   5.1190240  22.9463190  10.4763930   9.8263520
  23.5637190  11.1515010   9.5447970  22.0856310  10.8851910   9.7351020
  33.8640780  11.9403340   7.7418160  33.1804300  12.6102450   7.7334830
  34.4035070  12.1383990   6.9763020  35.3164920   1.7683000   5.8699890
  34.3689830   1.8021980   6.0015320  35.6414910   2.5821950   6.2549250
  31.3999520  13.7847470   6.4563340  31.4126680  13.3809760   5.5885600
  30.8474740  14.5594760   6.3524770  30.7984960   8.6877310   7.7845950
  31.2153750   8.4737420   6.9499410  31.5224780   8.9450100   8.3554570
  34.7447060   7.0864530   7.8762190  33.9165690   7.1557620   7.4012320
  35.3397540   7.6718840   7.4078020  31.7089070   3.8733850   8.8217060
  31.2960250   4.6987560   9.0757050  30.9765020   3.2878890   8.6293420
  23.8421860   6.6593750   3.6835730  23.4378860   5.9471000   3.1881630
  23.9284980   6.3146990   4.5723770  24.3103560  10.3461310   5.8474940
  24.0131850   9.7406780   5.1682720  25.2603380  10.3838620   5.7364300
  22.5550480   3.4336960   7.4634770  23.1065070   3.5432300   6.6888020
  23.0693990   3.8074560   8.1790000  32.3989170  13.9193180   9.5098040
  31.9219730  14.7265370   9.3170650  31.7150960  13.2671510   9.6624250
  23.4021990  10.0843000  12.4982740  22.5050520  10.3082970  12.7456140
  23.4274860  10.2077940  11.5494140  22.2293210   6.9556320  11.0740110
  22.0900980   7.8279120  11.4427510  21.3474570   6.6129130  10.9288050
  28.5522590  11.8732190   2.3805240  28.9918500  12.6156520   1.9660630
  28.4909480  12.1158760   3.3044200  24.0273560  12.8978020  13.2825260
  23.9988990  13.3020970  12.4153690  23.8638530  11.9688380  13.1196860
  35.9788380  13.6805120  14.5789430  36.4548100  14.1588010  15.2578510
  36.5995540  13.6122610  13.8534930  18.1811860   8.7253870   6.9911020
  18.2592280   8.8602640   6.0466740  18.7953540   8.0169760   7.1839140
  19.4259490  10.4254060   3.4017200  19.0187570  10.5668650   2.5470800
  20.3172500  10.1414220   3.1988410  35.3821630  10.8717970  11.7389440
  35.5084690  10.6329850  10.8206620  35.4243010  10.0402510  12.2111520
  29.2438370  14.5745970  10.3084250  29.7583040  14.4853980  11.1106680
  28.4007450  14.9205670  10.6012160  30.4868830  13.9951580   2.3714740
  30.9425780  13.2140960   2.6853360  30.8261350  14.7058400   2.9155920
  35.2345640   2.9250430  12.7039180  34.6189910   3.4330100  12.1754640
  34.9142060   2.0248760  12.6465120  18.2371380   9.7668040   9.5305480
  18.4002420   9.2973400   8.7124850  18.7023830   9.2591600  10.1954320
  32.2964470   2.9851270  11.2998030  31.4458060   2.6857020  11.6207100
  32.1366260   3.2293280  10.3881850  29.3914180   4.4853020  13.3996820
  29.7167590   3.6516770  13.0599050  30.1794510   5.0081540  13.5475150
  22.8004370   4.0207370   2.2947300  22.5745290   3.8044540   3.1993920
  22.0196900   4.4535830   1.9493270  25.2403580   4.9192950  12.9607570
  25.1447180   3.9787680  12.8107970  26.0835560   5.1408020  12.5655640
  28.6367000   2.6634280   2.9241230  29.0296570   2.9806480   2.1109920
  28.9983850   1.7846160   3.0385750  29.2222140   5.2540030   7.0192010
  28.4903260   5.7626840   7.3682110  28.8246480   4.4370010   6.7180790
  25.6599530   1.9294230   5.4244500  25.6635590   1.4884180   4.5749040
  26.5550650   2.2511560   5.5316320  19.8110360   9.1419470  11.6901290
  19.4265150   8.5013140  12.2884250  20.1222550   9.8455590  12.2596020
  25.9607500   5.9896010   7.1709910  26.3277630   5.5154580   7.9171250
  25.7712560   6.8637580   7.5118250  23.7506870   5.0304650   9.4894120
  23.4463940   5.9096630   9.7144480  24.7053330   5.0904440   9.5251560
  33.0376640   8.2331000   5.8787360  33.7575760   8.7286290   5.4883470
  32.8358460   7.5548890   5.2341230  28.4195440   8.3040060  11.7656360
  28.3532750   7.3835730  11.5113950  27.7900580   8.4015500  12.4801000
  22.3226060   8.9046020   3.7239780  22.8404730   8.1014280   3.6696670
  21.8710080   8.8425160   4.5656610  19.8070600   5.8707390  10.6365480
  19.4485540   6.5361240  11.2238820  19.5125160   5.0390940  11.0078100
  23.0083720   6.3291630  13.5205030  22.7083860   6.4748810  12.6232850
  23.7794960   5.7696920  13.4278420  28.3512170  11.1260630  11.5160160
  28.3656710  10.1941590  11.2979070  27.6437270  11.2120390  12.1549930
  34.5623380   7.7667970  10.8628740  33.8371570   8.3596750  10.6658130
  35.0898840   7.7591510  10.0642110  30.0922970   9.4928140   4.3612590
  30.4446790   8.8956270   3.7013960  29.2085300   9.1672370   4.5320840
  26.1786250  10.2525830   1.7683000  26.8657380  10.7995040   2.1490590
  25.3918670  10.7966560   1.8032610  27.7846070  12.7678200   8.6100660
  28.4288290  12.9737580   9.2874080  28.1475510  12.0066600   8.1571510
  29.0578150  10.7710550   7.3278110  29.7000380  10.0703710   7.4410280
  29.5827500  11.5508990   7.1475000  30.8315770  11.5705450  10.5314170
  31.1672010  12.1572140  11.2092090  29.9116110  11.4398160  10.7611960
  18.6691760  13.3480890  12.3004110  18.7782880  12.4075630  12.1599500
  18.0172320  13.6135640  11.6517840  26.6604350  11.6196780  13.7002230
  26.3401220  10.9006020  14.2447920  25.9862710  12.2951850  13.7738290
  26.8359940   4.5062530   9.2877000  27.3345190   4.9808350   9.9528850
  26.9782890   3.5826050   9.4947030  32.3348810   5.9663670   3.5766750
  31.3938950   5.9813900   3.7514440  32.6492880   5.1799630   4.0227050
  34.3374390  13.1372520   5.2521010  34.4621810  13.9603690   5.7244820
  35.2039950  12.9263250   4.9045160  21.8091920  15.2303730   4.9238140
  22.5454400  14.6819190   5.1946710  22.1932840  16.0959740   4.7844130
  20.8150200  14.4149800  14.1123720  21.6162930  14.7361850  14.5259120
  20.3002020  14.0545380  14.8343630  29.6514830  10.5229670  14.0599130
  29.0452990  10.5461270  13.3194880  29.3468940   9.7912710  14.5966380
  31.0815200  14.2509960  12.6708540  32.0336950  14.1667980  12.6208780
  30.9343420  14.9151670  13.3442330  18.5348010   6.9023260  13.0559770
  19.0387030   6.3230540  13.6276000  17.7955430   7.1863490  13.5936140
  25.5885950   8.3094250  12.5895290  24.8231620   8.8779250  12.5049960
  25.7701910   8.0170460  11.6963520  32.7309300  10.0399580  13.1470310
  33.4718770  10.3775340  12.6437770  31.9681980  10.2091640  12.5940080
  20.5671090   5.0452850  13.9509840  20.6076430   4.7466720  14.8595070
  21.4216590   5.4460460  13.7917360  22.5076900   3.6244950  11.9184330
  21.9773360   3.1335900  11.2907670  23.1764970   4.0529150  11.3842260
  31.4054960   8.0914410  11.6825520  31.8195980   8.2459490  12.5315940
  30.4705960   8.2169630  11.8451300  31.8777130   5.4310570  13.6864670
  32.4597900   4.6762890  13.5985150  32.0538900   5.9618010  12.9096150
  26.1670190   8.0434890   9.6521450  26.5858300   8.8867620   9.4797690
  25.2478820   8.1806930   9.4228230  28.5034090   5.7751070  11.0359290
  28.6230300   5.1792210  11.7754130  29.3628090   5.8120760  10.6160590
  30.8421990   6.3288260   9.6121800  30.3157210   6.8530880   9.0086940
  31.1853330   6.9615650  10.2431530  24.0177610  14.3487900  10.7679180
  23.4798700  15.0733960  10.4487880  24.2711570  13.8718240   9.9776520
  25.2702860   2.3172420  12.2935110  25.8602550   2.0088270  12.9812930
  24.4523100   1.8452170  12.4495010  26.8739820  15.5839110  11.0265830
  26.7998520  16.4874250  11.3338200  25.9718660  15.2651010  10.9987900
  18.2767110  12.9113700   4.3299450  18.6070120  12.0434760   4.0978090
  18.7058110  13.1172220   5.1604410  18.7657320  13.7784290   7.0681080
  18.3288310  13.9585090   7.9005230  19.3335000  14.5358910   6.9262800
  34.4019500  13.2801290  11.3558390  33.8021490  13.3393850  10.6122310
  34.5313400  12.3406270  11.4855240  18.5981750   6.2904520   3.4269960
  17.9430590   6.0216160   2.7829660  19.4359700   6.1809000   2.9771940
  36.1037380   8.6216690   4.0404230  36.4746210   7.8384010   3.6340200
  36.7439310   9.3105790   3.8621530  33.0871140  10.0053270   9.4534550
  32.2730980  10.4350430   9.7160340  33.4945340  10.6171680   8.8403600
  19.6357680   6.6757090   7.9673300  20.0030720   6.5884490   8.8469320
  19.0668500   5.9123640   7.8680160  34.4361540   5.1441470  10.9803770
  34.2047630   4.9154220  10.0801720  34.6966090   6.0641020  10.9348660
  19.1873680   3.5866180  11.8731720  18.2929730   3.5532940  12.2125430
  19.7271230   3.7852970  12.6382970  34.3212880   4.2227440   4.6471490
  34.8450360   3.7290090   4.0161660  34.9072300   4.3577800   5.3919060
  34.5002600   4.3067310   8.1691040  33.5505310   4.2730850   8.2836030
  34.6815610   5.2167420   7.9340810  35.2400010   2.1161740   3.1201580
  35.1299290   1.9617780   4.0583850  36.0007600   1.5882680   2.8776990
  33.1447190  14.7571870   2.9802820  33.7406260  14.4356440   2.3037240
  33.4025340  14.2843690   3.7716090  21.0509760  11.1889780  13.1293450
  21.0079390  10.8182690  14.0107910  21.1820770  12.1267350  13.2695270
  24.7515790  12.7449370   8.7303170  24.5107150  13.0123930   7.8433690
  25.6918430  12.9155100   8.7854030  36.0119950  14.7643750   9.5313810
  35.5178230  15.1612620   8.8140940  35.4033240  14.1392960   9.9251090
  20.8897790  14.1352030  10.2491230  20.2958110  14.0036730  10.9881270
  20.8821630  13.2990170   9.7833330  33.6959400  15.4067170   6.8100550
  33.2362370  16.1582980   6.4358570  33.0671860  14.6873640   6.7515350
  20.5210020  11.5010410   9.1999270  19.7944080  10.8815700   9.1325220
  20.5819170  11.8951020   8.3297350  24.1255120  13.7155410   5.9848680
  24.6420140  13.1042770   5.4596940  24.7752500  14.2184190   6.4759690
  26.8650620  14.6063900   6.8117660  27.1528430  14.3518200   5.9350670
  27.3773840  14.0541260   7.4023230  18.8040020  14.8184800   2.4096030
  18.6362060  14.1855480   3.1077920  17.9374530  15.0244200   2.0590220
  26.9322980  15.5280000  14.1785860  27.8590290  15.2924270  14.2221820
  26.9173410  16.3552000  13.6971890  33.5000540  14.7549860  14.0026900
  34.2925860  14.2599090  13.7952860  33.7933690  15.4340000  14.6102510
  10.8516710  61.9501270  78.7560400  10.7710760  61.0355880  78.4852110
  10.4381130  62.4468340  78.0500110   8.9834750  63.7280290  80.6369670
   8.2076850  63.2480730  80.9268240   9.6347680  63.0485940  80.4625830
   3.0000580  64.0400100  81.5145430   2.1685460  63.7848810  81.9141940
   3.6081560  64.1110870  82.2503350   8.4243740  66.4037480  80.6439830
   8.3552020  65.4627420  80.4828960   9.1863600  66.4938890  81.2162400
   9.4548910  59.2107860  80.8708760   9.8313730  58.3379740  80.7582430
   9.3568420  59.5466560  79.9799200   3.5853920  57.5833490  76.3326200
   3.6920670  58.4837220  76.6394960   2.6746280  57.5351460  76.0420850
  13.2373030  56.7058300  77.8037100  14.0582650  56.2154870  77.8462580
  13.2707110  57.2955960  78.5568940   5.4261650  60.5519860  80.6651380
   5.9339870  61.0500830  81.3056400   5.9574890  59.7755060  80.4890740
  10.0968840  65.3037730  76.4304700   9.4786110  65.7687180  75.8667420
  10.6092090  65.9965210  76.8474210   4.9600600  64.8313600  83.1088300
   4.6269980  65.4582520  83.7509370   5.1367280  65.3575480  82.3289970
  13.4734510  58.6458680  80.5764640  12.7690080  58.9343570  81.1567750
  13.8346670  59.4558790  80.2164200   3.3913080  56.9028380  82.9385250
   3.7329890  57.7470430  82.6439120   2.4528890  57.0512120  83.0550590
  16.5421430  58.0913470  80.9673850  15.5946340  58.1252450  81.0989280
  16.8671420  58.9052420  81.3523210   7.0740970  54.3910650  79.2629840
   7.3815950  53.8357540  78.5465340   6.1441670  54.5255110  79.0802830
  13.9201450  66.8294160  76.6427470  13.8097780  65.8868490  76.7676890
  13.9169700  67.1909800  77.5290230  12.0241470  65.0107780  82.8819910
  12.4410260  64.7967890  82.0473370  12.7481290  65.2680570  83.4528530
   9.4621730  62.4559480  75.9989960   8.5351010  62.3896860  76.2278430
   9.6146550  63.3939610  75.8845200   9.4490810  58.7276480  72.9957120
   8.5094480  58.8890440  73.0809580   9.7674070  59.4462160  72.4493110
  15.9703570  63.4095000  82.9736150  15.1422200  63.4788090  82.4986280
  16.5654050  63.9949310  82.5051980  13.4919020  64.0179780  76.5025210
  12.8731440  63.6799330  75.8551510  13.4743470  63.3739540  77.2104400
   5.0678370  62.9824220  78.7809690   4.6635370  62.2701470  78.2855590
   5.1541490  62.6377460  79.6697730   5.5360070  66.6691780  80.9448900
   5.2388360  66.0637250  80.2656680   6.4859890  66.7069090  80.8338260
   3.7806990  59.7567430  82.5608730   4.3321580  59.8662770  81.7861980
   4.2950500  60.1305030  83.2763960  11.6683720  63.2566590  73.5097960
  12.1077000  62.4189020  73.3635780  12.3812140  63.8895990  73.5962100
  15.2500860  54.5109400  71.8239000  14.9373520  54.6036230  72.7238070
  16.0113330  55.0890430  71.7736430   1.7683000  61.8769200  76.2816340
   1.6480600  62.6031290  75.6697610   1.4583890  61.1072110  75.8044250
   4.2346660  55.2204270  79.6640010   3.7914810  56.0013810  79.3324530
   4.7931650  55.5434160  80.3710950   7.3505480  54.8414970  74.5445840
   6.7259660  54.8374840  75.2699150   7.2635600  53.9745930  74.1481810
   6.2722560  55.7651600  81.5229610   6.5694890  56.6714430  81.4421630
   6.8208120  55.2770380  80.9089180   4.0260880  60.3437840  77.3921260
   3.8001800  60.1275010  78.2967880   3.2453410  60.7766300  77.0467230
  11.2558640  60.3501210  75.9911910  10.6567530  61.0737010  75.8075530
  11.8038250  60.2877990  75.2088360   9.8623510  58.9864750  78.0215190
  10.2553080  59.3036950  77.2083880  10.2240360  58.1076630  78.1359710
  10.4478650  61.5770500  82.1165970   9.7159770  62.0857310  82.4656070
  10.0502990  60.7600480  81.8154750   6.8856040  58.2524700  80.5218460
   6.8892100  57.8114650  79.6723000   7.7807160  58.5742030  80.6290280
   2.7358420  58.1351190  79.4812670   2.3958470  58.6126420  80.2379720
   1.9735740  57.6816310  79.1213770   6.9476190  59.2536780  73.5125220
   7.0689010  59.2123260  74.4611040   6.5624700  60.1160930  73.3571950
  10.9104560  57.0304180  81.5288910  10.9277300  57.4812830  82.3730760
  10.6620140  56.1309820  81.7422350   5.9597690  61.5637920  72.9108520
   5.3914590  61.1156170  72.2844430   6.6686690  61.9230700  72.3773670
   7.1864010  62.3126480  82.2683870   7.5534140  61.8385050  83.0145210
   6.9969070  63.1868050  82.6092210   3.5045170  65.5596110  75.1834930
   2.7307430  65.0193730  75.0233650   4.2339800  65.0402720  74.8452690
  14.2633150  64.5561470  80.9761320  14.9832270  65.0516760  80.5857430
  14.0614970  63.8779360  80.3315190   9.7243090  55.9499430  75.1190710
   8.9107700  55.4512600  75.0436020   9.5305040  56.7897680  74.7027060
  12.4391480  60.3219080  73.4152870  13.3271100  60.6336310  73.2404210
  12.4096570  59.4491330  73.0233450   3.5482570  65.2276490  78.8213740
   4.0661240  64.4244750  78.7670630   3.0966590  65.1655630  79.6630570
   8.4352070  66.4942770  74.0941040   8.7767770  67.2385000  73.5984360
   7.6064780  66.8073890  74.4565870  14.7105750  61.6330920  72.8832730
  14.6269470  62.0645140  72.0329170  15.4299940  62.0929270  73.3159550
  11.3179480  65.8158610  79.4586550  11.6703300  65.2186740  78.7987920
  10.4341810  65.4902840  79.6294800   7.4042760  66.5756300  76.8656960
   8.0913890  67.1225510  77.2464550   6.6175180  67.1197030  76.9006570
   6.7069970  63.5802330  76.4782320   7.1632750  64.3907580  76.7042510
   6.3558180  63.2625470  77.3100810   2.6081750  53.9239980  76.9504840
   2.4796380  53.9157880  77.8989760   1.7843770  54.2623070  76.5995850
  14.1290380  67.3789640  72.1491210  13.9027960  66.6620080  72.7415850
  13.7386580  67.1302080  71.3112960  13.7106630  65.2961580  73.8105370
  13.4228330  65.7574270  74.5983250  14.5058800  64.8359350  74.0789590
  14.4676490  57.1310350  74.9700550  13.8389650  57.2356020  74.2558780
  13.9728410  57.3507130  75.7594430   6.4360520  59.4096300  76.3858430
   5.7276670  59.8782640  76.8272040   6.7205000  58.7518310  77.0203620
  10.4675950  56.1346960  77.8254220  10.3443730  56.1533090  76.8763730
  11.4160510  56.1825900  77.9452620   4.6395540  57.7181380  73.7609140
   5.4886070  58.1551530  73.6949330   4.2726810  58.0301640  74.5881200
  13.5605320  62.2894140  78.6740710  12.6195460  62.3044370  78.8488400
  13.8749390  61.5030100  79.1201010   3.5386960  63.9713740  72.2344670
   4.3050230  63.8595100  72.7970100   3.6161650  63.2751710  71.5821440
   2.2333720  61.4038810  72.9177560   2.3137310  60.4566320  73.0294960
   3.1253470  61.7345690  73.0238220   6.6628140  65.9467920  71.7080020
   6.5578780  65.3320270  72.4341400   6.4952360  65.4233810  70.9243030
   9.9030870  65.0087950  72.3122010   9.3540970  65.4557250  72.9564750
  10.5250130  64.5037200  72.8359680   5.5705990  63.9678870  74.2087310
   5.9922410  63.8018740  75.0518700   5.6956830  63.1579100  73.7142450
   8.0833630  62.9916480  71.4564410   8.6039290  62.2765500  71.0905560
   8.7302030  63.6302350  71.7564920   4.4664890  60.0412100  71.1545470
   4.2653950  59.1779460  71.5158810   4.2956940  59.9545460  70.2167070
  11.9453200  54.8520330  73.6832350  12.2255490  54.0088230  74.0391770
  11.1718930  55.0843440  74.1971100   3.2647690  57.1412720  71.1423350
   3.5673590  57.1480150  70.2342500   4.0042280  56.7910580  71.6391010
   6.4832620  56.0847340  72.1279550   6.1354620  55.4071330  71.5482000
   6.6845390  55.6236850  72.9422940   2.2877820  66.4455140  71.9753150
   2.7252690  66.9884810  72.6310730   2.7725550  65.6202090  71.9849490
   4.0985540  67.5653180  77.0875380   3.7981080  67.4418150  77.9879290
   3.9923030  66.7061770  76.6791110  16.3233920  64.0897060  74.2936260
  17.0852830  64.6593710  74.3995950  16.3388290  63.5224260  75.0644570
  17.3293890  64.9447160  79.1378190  17.7002720  64.1614480  78.7314160
  17.9695820  65.6336260  78.9595490  16.3753090  64.3831430  71.4508780
  16.6501930  65.2910310  71.3228000  16.1863830  64.3193960  72.3870770
  12.7728700  57.4076280  72.7462410  13.1913580  57.2207260  71.9059070
  12.4664760  56.5555330  73.0565340  16.2718430  62.3200420  76.4438210
  15.8962030  61.5528350  76.0119500  15.5421550  62.7023120  76.9313140
  15.5469390  60.5457910  79.7445450  16.0706870  60.0520560  79.1135620
  16.1328810  60.6808270  80.4893020  15.7259110  60.6297780  83.2665000
  14.7761820  60.5961320  83.3809990  15.9072120  61.5397890  83.0314770
  15.0369360  59.8031260  75.6837860  15.5328480  59.5702130  76.4686740
  14.8385430  58.9643100  75.2675500  16.4656520  58.4392210  78.2175540
  16.3555800  58.2848250  79.1557810  17.2264110  57.9113150  77.9750950
  17.3546790  56.2700130  71.4581680  18.2796100  56.1381310  71.2499970
  17.3322580  56.3492950  72.4118130  17.4285280  57.0410790  74.0838390
  16.6336780  56.9755910  74.6131300  17.6328560  57.9761430  74.0723740
   9.3084140  54.6684570  82.4888130   8.5255930  55.1430070  82.7684890
   9.0147070  53.7639400  82.3801310  13.8605210  55.3707670  80.5337220
  14.3013300  55.3152770  79.6858820  13.5912800  56.2865680  80.6047400
  15.7243780  55.0022910  78.5446040  15.6632180  54.0584130  78.3977060
  16.5035810  55.1103000  79.0899500   7.1938360  57.0871320  78.0004160
   6.3812870  56.7128210  77.6600040   7.6980000  56.3316400  78.3025350
  11.6963340  53.7513770  79.2387230  12.2992710  54.3233980  79.7135750
  10.9556330  54.3153210  79.0161130  14.8397940  54.1535330  74.5127510
  15.0348570  55.0518780  74.7794940  14.0527810  53.9222410  75.0060460
   3.0249700  55.4996100  73.5503820   3.5542460  54.7125900  73.4211770
   3.6578020  56.1787290  73.7839350   5.2187540  55.2371240  76.6049210
   4.5890280  54.5358550  76.7719340   4.6792680  55.9975370  76.3882370
  10.8516710  61.9501270  59.9816910  10.7710760  61.0355880  59.7108620
  10.4381130  62.4468340  59.2756620   8.9834750  63.7280290  61.8626180
   8.2076850  63.2480730  62.1524750   9.6347680  63.0485940  61.6882340
   3.0000580  64.0400100  62.7401940   2.1685460  63.7848810  63.1398450
   3.6081560  64.1110870  63.4759860   8.4243740  66.4037480  61.8696340
   8.3552020  65.4627420  61.7085470   9.1863600  66.4938890  62.4418910
   9.4548910  59.2107860  62.0965270   9.8313730  58.3379740  61.9838940
   9.3568420  59.5466560  61.2055710   3.5853920  57.5833490  57.5582710
   3.6920670  58.4837220  57.8651470   2.6746280  57.5351460  57.2677360
  13.2373030  56.7058300  59.0293610  14.0582650  56.2154870  59.0719090
  13.2707110  57.2955960  59.7825450   5.4261650  60.5519860  61.8907890
   5.9339870  61.0500830  62.5312910   5.9574890  59.7755060  61.7147250
  17.5272580  58.7225050  65.5937240  16.8224750  59.1106760  65.0752350
  17.7930500  59.4175340  66.1958170   3.7097750  55.1918420  66.1571310
   3.7116190  55.7090810  65.3517210   2.8802060  54.7148600  66.1341240
  10.0968840  65.3037730  57.6561210   9.4786110  65.7687180  57.0923930
  10.6092090  65.9965210  58.0730720   4.9600600  64.8313600  64.3344810
   4.6269980  65.4582520  64.9765880   5.1367280  65.3575480  63.5546480
  13.4734510  58.6458680  61.8021150  12.7690080  58.9343570  62.3824260
  13.8346670  59.4558790  61.4420710   3.3913080  56.9028380  64.1641760
   3.7329890  57.7470430  63.8695630   2.4528890  57.0512120  64.2807100
   4.1719700  66.7994400  66.1493990   4.7893700  67.4745480  65.8678440
   3.3112820  67.2082380  66.0581490  16.5421430  58.0913470  62.1930360
  15.5946340  58.1252450  62.3245790  16.8671420  58.9052420  62.5779720
   7.0740970  54.3910650  60.4886350   7.3815950  53.8357540  59.7721850
   6.1441670  54.5255110  60.3059340  13.9201450  66.8294160  57.8683980
  13.8097780  65.8868490  57.9933400  13.9169700  67.1909800  58.7546740
  12.0241470  65.0107780  64.1076420  12.4410260  64.7967890  63.2729880
  12.7481290  65.2680570  64.6785040   9.4621730  62.4559480  57.2246470
   8.5351010  62.3896860  57.4534940   9.6146550  63.3939610  57.1101710
   9.4490810  58.7276480  54.2213630   8.5094480  58.8890440  54.3066090
   9.7674070  59.4462160  53.6749620  15.9703570  63.4095000  64.1992660
  15.1422200  63.4788090  63.7242790  16.5654050  63.9949310  63.7308490
  13.4919020  64.0179780  57.7281720  12.8731440  63.6799330  57.0808020
  13.4743470  63.3739540  58.4360910  12.9345580  60.1964320  65.1447530
  12.5216760  61.0218030  65.3987520  12.2021530  59.6109360  64.9523890
   5.0678370  62.9824220  60.0066200   4.6635370  62.2701470  59.5112100
   5.1541490  62.6377460  60.8954240   5.5360070  66.6691780  62.1705410
   5.2388360  66.0637250  61.4913190   6.4859890  66.7069090  62.0594770
   3.7806990  59.7567430  63.7865240   4.3321580  59.8662770  63.0118490
   4.2950500  60.1305030  64.5020470   4.6278500  66.4073470  68.8213210
   3.7307030  66.6313440  69.0686610   4.6531370  66.5308410  67.8724610
  11.6683720  63.2566590  54.7354470  12.1077000  62.4189020  54.5892290
  12.3812140  63.8895990  54.8218610   3.4549720  63.2786790  67.3970580
   3.3157490  64.1509590  67.7657980   2.5731080  62.9359600  67.2518520
  15.2500860  54.5109400  53.0495510  14.9373520  54.6036230  53.9494580
  16.0113330  55.0890430  52.9992940   1.7683000  61.8769200  57.5072850
   1.6480600  62.6031290  56.8954120   1.4583890  61.1072110  57.0300760
  16.6078140  67.1948440  68.0619910  16.7341200  66.9560320  67.1437090
  16.6499520  66.3632980  68.5341990  16.4602150  59.2480900  69.0269650
  15.8446420  59.7560570  68.4985110  16.1398570  58.3479230  68.9695590
   4.2346660  55.2204270  60.8896520   3.7914810  56.0013810  60.5581040
   4.7931650  55.5434160  61.5967460   8.5216470  58.0872790  66.4931840
   8.0595840  58.2955810  67.3051780   8.1194580  57.2732140  66.1902510
  13.5220980  59.3081740  67.6228500  12.6714570  59.0087490  67.9437570
  13.3622770  59.5523750  66.7112320  10.6170690  60.8083490  69.7227290
  10.9424100  59.9747240  69.3829520  11.4051020  61.3312010  69.8705620
   7.3505480  54.8414970  55.7702350   6.7259660  54.8374840  56.4955660
   7.2635600  53.9745930  55.3738320   6.2722560  55.7651600  62.7486120
   6.5694890  56.6714430  62.6678140   6.8208120  55.2770380  62.1345690
   4.0260880  60.3437840  58.6177770   3.8001800  60.1275010  59.5224390
   3.2453410  60.7766300  58.2723740  11.2558640  60.3501210  57.2168420
  10.6567530  61.0737010  57.0332040  11.8038250  60.2877990  56.4344870
   6.4660090  61.2423420  69.2838040   6.3703690  60.3018150  69.1338440
   7.3092070  61.4638490  68.8886110   9.8623510  58.9864750  59.2471700
  10.2553080  59.3036950  58.4340390  10.2240360  58.1076630  59.3616220
   8.1715680  57.7372060  70.5068560   7.4814000  57.5444260  71.1414650
   8.9147980  58.0206700  71.0392860  10.4478650  61.5770500  63.3422480
   9.7159770  62.0857310  63.6912580  10.0502990  60.7600480  63.0411260
   6.8856040  58.2524700  61.7474970   6.8892100  57.8114650  60.8979510
   7.7807160  58.5742030  61.8546790   2.7358420  58.1351190  60.7069180
   2.3958470  58.6126420  61.4636230   1.9735740  57.6816310  60.3470280
   6.9476190  59.2536780  54.7381730   7.0689010  59.2123260  55.6867550
   6.5624700  60.1160930  54.5828460  10.9104560  57.0304180  62.7545420
  10.9277300  57.4812830  63.5987270  10.6620140  56.1309820  62.9678860
   5.9597690  61.5637920  54.1365030   5.3914590  61.1156170  53.5100940
   6.6686690  61.9230700  53.6030180  14.3375310  54.4436360  68.5931800
  14.6621080  53.7126020  69.1189780  14.3731820  54.1250000  67.6912790
   7.1864010  62.3126480  63.4940380   7.5534140  61.8385050  64.2401720
   6.9969070  63.1868050  63.8348720   4.9763380  61.3535120  65.8124590
   4.6720450  62.2327100  66.0374950   5.9309840  61.4134910  65.8482030
   3.5045170  65.5596110  56.4091440   2.7307430  65.0193730  56.2490160
   4.2339800  65.0402720  56.0709200  14.2633150  64.5561470  62.2017830
  14.9832270  65.0516760  61.8113940  14.0614970  63.8779360  61.5571700
   9.7243090  55.9499430  56.3447220   8.9107700  55.4512600  56.2692530
   9.5305040  56.7897680  55.9283570   9.6451950  64.6270530  68.0886830
   9.5789260  63.7066200  67.8344420   9.0157090  64.7245970  68.8031470
  12.4391480  60.3219080  54.6409380  13.3271100  60.6336310  54.4660720
  12.4096570  59.4491330  54.2489960   3.5482570  65.2276490  60.0470250
   4.0661240  64.4244750  59.9927140   3.0966590  65.1655630  60.8887080
   8.4352070  66.4942770  55.3197550   8.7767770  67.2385000  54.8240870
   7.6064780  66.8073890  55.6822380   4.2340230  62.6522100  69.8435500
   3.9340370  62.7979280  68.9463320   5.0051470  62.0927390  69.7508890
   9.5768680  67.4491100  67.8390630   9.5913220  66.5172060  67.6209540
   8.8693780  67.5350860  68.4780400  14.7105750  61.6330920  54.1089240
  14.6269470  62.0645140  53.2585680  15.4299940  62.0929270  54.5416060
  15.7879890  64.0898440  67.1859210  15.0628080  64.6827220  66.9888600
  16.3155350  64.0821980  66.3872580  11.3179480  65.8158610  60.6843060
  11.6703300  65.2186740  60.0244430  10.4341810  65.4902840  60.8551310
   7.4042760  66.5756300  58.0913470   8.0913890  67.1225510  58.4721060
   6.6175180  67.1197030  58.1263080   6.7069970  63.5802330  57.7038830
   7.1632750  64.3907580  57.9299020   6.3558180  63.2625470  58.5357320
   2.6081750  53.9239980  58.1761350   2.4796380  53.9157880  59.1246270
   1.7843770  54.2623070  57.8252360  14.1290380  67.3789640  53.3747720
  13.9027960  66.6620080  53.9672360  13.7386580  67.1302080  52.5369470
  13.7106630  65.2961580  55.0361880  13.4228330  65.7574270  55.8239760
  14.5058800  64.8359350  55.3046100  11.1014460  58.1753410  65.3869500
  11.4695280  57.3548620  65.7149070  10.2412660  58.2355300  65.8025150
  14.4676490  57.1310350  56.1957060  13.8389650  57.2356020  55.4815290
  13.9728410  57.3507130  56.9850940   6.4360520  59.4096300  57.6114940
   5.7276670  59.8782640  58.0528550   6.7205000  58.7518310  58.2460130
   8.0616450  60.8293000  65.6107470   8.5601700  61.3038820  66.2759320
   8.2039400  59.9056520  65.8177500  10.4675950  56.1346960  59.0510730
  10.3443730  56.1533090  58.1020240  11.4160510  56.1825900  59.1709130
   4.6395540  57.7181380  54.9865650   5.4886070  58.1551530  54.9205840
   4.2726810  58.0301640  55.8137710  15.2683310  57.0460960  66.4535860
  14.7656910  57.7866360  66.7929670  16.0839970  57.4344960  66.1372650
  13.5605320  62.2894140  59.8997220  12.6195460  62.3044370  60.0744910
  13.8749390  61.5030100  60.3457520   3.5386960  63.9713740  53.4601180
   4.3050230  63.8595100  54.0226610   3.6161650  63.2751710  52.8077950
   2.2333720  61.4038810  54.1434070   2.3137310  60.4566320  54.2551470
   3.1253470  61.7345690  54.2494730  10.8771340  66.8460140  70.3829600
  10.2709500  66.8691740  69.6425350  10.5725450  66.1143180  70.9196850
   6.6628140  65.9467920  52.9336530   6.5578780  65.3320270  53.6597910
   6.4952360  65.4233810  52.1499540   6.8142460  64.6324720  68.9125760
   6.0488130  65.2009720  68.8280430   6.9958420  64.3400930  68.0193990
   9.9030870  65.0087950  53.5378520   9.3540970  65.4557250  54.1821260
  10.5250130  64.5037200  54.0616190  13.9565810  66.3630050  69.4700780
  14.6975280  66.7005810  68.9668240  13.1938490  66.5322110  68.9170550
   1.7927600  61.3683320  70.2740310   1.8332940  61.0697190  71.1825540
   2.6473100  61.7690930  70.1147830   5.5705990  63.9678870  55.4343820
   5.9922410  63.8018740  56.2775210   5.6956830  63.1579100  54.9398960
   3.7333410  59.9475420  68.2414800   3.2029870  59.4566370  67.6138140
   4.4021480  60.3759620  67.7072730   8.0833630  62.9916480  52.6820920
   8.6039290  62.2765500  52.3162070   8.7302030  63.6302350  52.9821430
  12.6311470  64.4144880  68.0055990  13.0452490  64.5689960  68.8546410
  11.6962470  64.5400100  68.1681770  13.1033640  61.7541040  70.0095140
  13.6854410  60.9993360  69.9215620  13.2795410  62.2848480  69.2326620
   4.2205710  56.9137790  68.3212090   4.1262580  56.2958540  67.5962960
   3.6403100  57.6404080  68.0942000   6.9867150  55.4711030  65.3539480
   6.5384450  55.4935290  64.5085030   6.3532350  55.0730050  65.9509780
   7.3926700  64.3665360  65.9751920   7.8114810  65.2098090  65.8028160
   6.4735330  64.5037400  65.7458700   9.7290600  62.0981540  67.3589760
   9.8486810  61.5022680  68.0984600  10.5884600  62.1351230  66.9391060
  12.0678500  62.6518730  65.9352270  11.5413720  63.1761350  65.3317410
  12.4109840  63.2846120  66.5662000   4.4664890  60.0412100  52.3801980
   4.2653950  59.1779460  52.7415320   4.2956940  59.9545460  51.4423580
   6.4959370  58.6402890  68.6165580   7.0859060  58.3318740  69.3043400
   5.6779610  58.1682640  68.7725480  11.3152800  58.2568700  68.8498600
  10.6268320  57.5950240  68.7848590  12.0358820  57.8106970  69.2947060
  11.9453200  54.8520330  54.9088860  12.2255490  54.0088230  55.2648280
  11.1718930  55.0843440  55.4227610   3.2647690  57.1412720  52.3679860
   3.5673590  57.1480150  51.4599010   4.0042280  56.7910580  52.8647520
   6.4832620  56.0847340  53.3536060   6.1354620  55.4071330  52.7738510
   6.6845390  55.6236850  54.1679450   2.2877820  66.4455140  53.2009660
   2.7252690  66.9884810  53.8567240   2.7725550  65.6202090  53.2106000
   4.0985540  67.5653180  58.3131890   3.7981080  67.4418150  59.2135800
   3.9923030  66.7061770  57.9047620  16.3233920  64.0897060  55.5192770
  17.0852830  64.6593710  55.6252460  16.3388290  63.5224260  56.2901080
  17.3293890  64.9447160  60.3634700  17.7002720  64.1614480  59.9570670
  17.9695820  65.6336260  60.1852000  14.3127650  66.3283740  65.7765020
  13.4987490  66.7580900  66.0390810  14.7201850  66.9402150  65.1634070
  16.3753090  64.3831430  52.6765290  16.6501930  65.2910310  52.5484510
  16.1863830  64.3193960  53.6127280  12.7728700  57.4076280  53.9718920
  13.1913580  57.2207260  53.1315580  12.4664760  56.5555330  54.2821850
  16.2718430  62.3200420  57.6694720  15.8962030  61.5528350  57.2376010
  15.5421550  62.7023120  58.1569650  15.6618050  61.4671940  67.3034240
  15.4304140  61.2384690  66.4032190  15.9222600  62.3871490  67.2579130
  14.1006120  56.6928370  70.0813940  14.9776300  56.7011770  70.4647940
  14.1126960  55.9559210  69.4706290  15.5469390  60.5457910  60.9701960
  16.0706870  60.0520560  60.3392130  16.1328810  60.6808270  61.7149530
  15.7259110  60.6297780  64.4921510  14.7761820  60.5961320  64.6066500
  15.9072120  61.5397890  64.2571280  15.0369360  59.8031260  56.9094370
  15.5328480  59.5702130  57.6943250  14.8385430  58.9643100  56.4932010
  16.4656520  58.4392210  59.4432050  16.3555800  58.2848250  60.3814320
  17.2264110  57.9113150  59.2007460  14.8122240  54.3786340  65.9015050
  15.4494460  54.9920480  66.2674240  14.9597130  54.4147000  64.9564280
  17.3546790  56.2700130  52.6838190  18.2796100  56.1381310  52.4756480
  17.3322580  56.3492950  53.6374640  17.4285280  57.0410790  55.3094900
  16.6336780  56.9755910  55.8387810  17.6328560  57.9761430  55.2980250
   8.1826720  55.5312530  68.8090150   8.1215610  56.1234360  69.5585560
   9.1227100  55.4238490  68.6640410  10.8201280  55.1882590  68.4482440
  11.4341690  55.5061880  67.7863520  11.3650840  54.7031180  69.0678300
  11.5609320  53.7514730  64.7751730  10.6869160  54.0849840  64.5724660
  11.4520070  53.2787910  65.6003600  12.4681300  55.9585600  66.1593450
  12.1394660  55.1437360  65.7795180  13.4163600  55.9155410  66.0359140
   9.3084140  54.6684570  63.7144640   8.5255930  55.1430070  63.9941400
   9.0147070  53.7639400  63.6057820  13.8605210  55.3707670  61.7593730
  14.3013300  55.3152770  60.9115330  13.5912800  56.2865680  61.8303910
  15.7243780  55.0022910  59.7702550  15.6632180  54.0584130  59.6233570
  16.5035810  55.1103000  60.3156010   7.1938360  57.0871320  59.2260670
   6.3812870  56.7128210  58.8856550   7.6980000  56.3316400  59.5281860
  11.6963340  53.7513770  60.4643740  12.2992710  54.3233980  60.9392260
  10.9556330  54.3153210  60.2417640  14.8397940  54.1535330  55.7384020
  15.0348570  55.0518780  56.0051450  14.0527810  53.9222410  56.2316970
   3.0249700  55.4996100  54.7760330   3.5542460  54.7125900  54.6468280
   3.6578020  56.1787290  55.0095860   5.2187540  55.2371240  57.8305720
   4.5890280  54.5358550  57.9975850   4.6792680  55.9975370  57.6138880
   5.3443100  54.5155220  70.2658210   5.0627370  55.0188820  69.5019030
   5.7262800  53.7176970  69.9000340  11.9458560  53.9308800  70.8438680
  11.8324010  54.2503410  71.7390200  12.7628300  54.3321310  70.5475960
  10.8516710  61.9501270  41.2073420  10.7710760  61.0355880  40.9365130
  10.4381130  62.4468340  40.5013130   8.9834750  63.7280290  43.0882690
   8.2076850  63.2480730  43.3781260   9.6347680  63.0485940  42.9138850
   3.0000580  64.0400100  43.9658450   2.1685460  63.7848810  44.3654960
   3.6081560  64.1110870  44.7016370   8.4243740  66.4037480  43.0952850
   8.3552020  65.4627420  42.9341980   9.1863600  66.4938890  43.6675420
   9.4548910  59.2107860  43.3221780   9.8313730  58.3379740  43.2095450
   9.3568420  59.5466560  42.4312220   3.5853920  57.5833490  38.7839220
   3.6920670  58.4837220  39.0907980   2.6746280  57.5351460  38.4933870
  13.2373030  56.7058300  40.2550120  14.0582650  56.2154870  40.2975600
  13.2707110  57.2955960  41.0081960   5.4261650  60.5519860  43.1164400
   5.9339870  61.0500830  43.7569420   5.9574890  59.7755060  42.9403760
  17.5272580  58.7225050  46.8193750  16.8224750  59.1106760  46.3008860
  17.7930500  59.4175340  47.4214680   3.7097750  55.1918420  47.3827820
   3.7116190  55.7090810  46.5773720   2.8802060  54.7148600  47.3597750
  10.0968840  65.3037730  38.8817720   9.4786110  65.7687180  38.3180440
  10.6092090  65.9965210  39.2987230   4.9600600  64.8313600  45.5601320
   4.6269980  65.4582520  46.2022390   5.1367280  65.3575480  44.7802990
  13.4734510  58.6458680  43.0277660  12.7690080  58.9343570  43.6080770
  13.8346670  59.4558790  42.6677220   3.3913080  56.9028380  45.3898270
   3.7329890  57.7470430  45.0952140   2.4528890  57.0512120  45.5063610
   4.1719700  66.7994400  47.3750500   4.7893700  67.4745480  47.0934950
   3.3112820  67.2082380  47.2838000  16.5421430  58.0913470  43.4186870
  15.5946340  58.1252450  43.5502300  16.8671420  58.9052420  43.8036230
   7.0740970  54.3910650  41.7142860   7.3815950  53.8357540  40.9978360
   6.1441670  54.5255110  41.5315850  13.9201450  66.8294160  39.0940490
  13.8097780  65.8868490  39.2189910  13.9169700  67.1909800  39.9803250
  12.0241470  65.0107780  45.3332930  12.4410260  64.7967890  44.4986390
  12.7481290  65.2680570  45.9041550   9.4621730  62.4559480  38.4502980
   8.5351010  62.3896860  38.6791450   9.6146550  63.3939610  38.3358220
   9.4490810  58.7276480  35.4470140   8.5094480  58.8890440  35.5322600
   9.7674070  59.4462160  34.9006130  15.9703570  63.4095000  45.4249170
  15.1422200  63.4788090  44.9499300  16.5654050  63.9949310  44.9565000
  13.4919020  64.0179780  38.9538230  12.8731440  63.6799330  38.3064530
  13.4743470  63.3739540  39.6617420  12.9345580  60.1964320  46.3704040
  12.5216760  61.0218030  46.6244030  12.2021530  59.6109360  46.1780400
   5.0678370  62.9824220  41.2322710   4.6635370  62.2701470  40.7368610
   5.1541490  62.6377460  42.1210750   5.5360070  66.6691780  43.3961920
   5.2388360  66.0637250  42.7169700   6.4859890  66.7069090  43.2851280
   3.7806990  59.7567430  45.0121750   4.3321580  59.8662770  44.2375000
   4.2950500  60.1305030  45.7276980   4.6278500  66.4073470  50.0469720
   3.7307030  66.6313440  50.2943120   4.6531370  66.5308410  49.0981120
  11.6683720  63.2566590  35.9610980  12.1077000  62.4189020  35.8148800
  12.3812140  63.8895990  36.0475120   3.4549720  63.2786790  48.6227090
   3.3157490  64.1509590  48.9914490   2.5731080  62.9359600  48.4775030
  15.2500860  54.5109400  34.2752020  14.9373520  54.6036230  35.1751090
  16.0113330  55.0890430  34.2249450   1.7683000  61.8769200  38.7329360
   1.6480600  62.6031290  38.1210630   1.4583890  61.1072110  38.2557270
  16.6078140  67.1948440  49.2876420  16.7341200  66.9560320  48.3693600
  16.6499520  66.3632980  49.7598500  16.4602150  59.2480900  50.2526160
  15.8446420  59.7560570  49.7241620  16.1398570  58.3479230  50.1952100
   4.2346660  55.2204270  42.1153030   3.7914810  56.0013810  41.7837550
   4.7931650  55.5434160  42.8223970   8.5216470  58.0872790  47.7188350
   8.0595840  58.2955810  48.5308290   8.1194580  57.2732140  47.4159020
  13.5220980  59.3081740  48.8485010  12.6714570  59.0087490  49.1694080
  13.3622770  59.5523750  47.9368830  10.6170690  60.8083490  50.9483800
  10.9424100  59.9747240  50.6086030  11.4051020  61.3312010  51.0962130
   7.3505480  54.8414970  36.9958860   6.7259660  54.8374840  37.7212170
   7.2635600  53.9745930  36.5994830   6.2722560  55.7651600  43.9742630
   6.5694890  56.6714430  43.8934650   6.8208120  55.2770380  43.3602200
   4.0260880  60.3437840  39.8434280   3.8001800  60.1275010  40.7480900
   3.2453410  60.7766300  39.4980250  11.2558640  60.3501210  38.4424930
  10.6567530  61.0737010  38.2588550  11.8038250  60.2877990  37.6601380
   6.4660090  61.2423420  50.5094550   6.3703690  60.3018150  50.3594950
   7.3092070  61.4638490  50.1142620   9.8623510  58.9864750  40.4728210
  10.2553080  59.3036950  39.6596900  10.2240360  58.1076630  40.5872730
   8.1715680  57.7372060  51.7325070   7.4814000  57.5444260  52.3671160
   8.9147980  58.0206700  52.2649370  10.4478650  61.5770500  44.5678990
   9.7159770  62.0857310  44.9169090  10.0502990  60.7600480  44.2667770
   6.8856040  58.2524700  42.9731480   6.8892100  57.8114650  42.1236020
   7.7807160  58.5742030  43.0803300   2.7358420  58.1351190  41.9325690
   2.3958470  58.6126420  42.6892740   1.9735740  57.6816310  41.5726790
   6.9476190  59.2536780  35.9638240   7.0689010  59.2123260  36.9124060
   6.5624700  60.1160930  35.8084970  10.9104560  57.0304180  43.9801930
  10.9277300  57.4812830  44.8243780  10.6620140  56.1309820  44.1935370
   5.9597690  61.5637920  35.3621540   5.3914590  61.1156170  34.7357450
   6.6686690  61.9230700  34.8286690  14.3375310  54.4436360  49.8188310
  14.6621080  53.7126020  50.3446290  14.3731820  54.1250000  48.9169300
   7.1864010  62.3126480  44.7196890   7.5534140  61.8385050  45.4658230
   6.9969070  63.1868050  45.0605230   4.9763380  61.3535120  47.0381100
   4.6720450  62.2327100  47.2631460   5.9309840  61.4134910  47.0738540
   3.5045170  65.5596110  37.6347950   2.7307430  65.0193730  37.4746670
   4.2339800  65.0402720  37.2965710  14.2633150  64.5561470  43.4274340
  14.9832270  65.0516760  43.0370450  14.0614970  63.8779360  42.7828210
   9.7243090  55.9499430  37.5703730   8.9107700  55.4512600  37.4949040
   9.5305040  56.7897680  37.1540080   9.6451950  64.6270530  49.3143340
   9.5789260  63.7066200  49.0600930   9.0157090  64.7245970  50.0287980
  12.4391480  60.3219080  35.8665890  13.3271100  60.6336310  35.6917230
  12.4096570  59.4491330  35.4746470   3.5482570  65.2276490  41.2726760
   4.0661240  64.4244750  41.2183650   3.0966590  65.1655630  42.1143590
   8.4352070  66.4942770  36.5454060   8.7767770  67.2385000  36.0497380
   7.6064780  66.8073890  36.9078890   4.2340230  62.6522100  51.0692010
   3.9340370  62.7979280  50.1719830   5.0051470  62.0927390  50.9765400
   9.5768680  67.4491100  49.0647140   9.5913220  66.5172060  48.8466050
   8.8693780  67.5350860  49.7036910  14.7105750  61.6330920  35.3345750
  14.6269470  62.0645140  34.4842190  15.4299940  62.0929270  35.7672570
  15.7879890  64.0898440  48.4115720  15.0628080  64.6827220  48.2145110
  16.3155350  64.0821980  47.6129090  11.3179480  65.8158610  41.9099570
  11.6703300  65.2186740  41.2500940  10.4341810  65.4902840  42.0807820
   7.4042760  66.5756300  39.3169980   8.0913890  67.1225510  39.6977570
   6.6175180  67.1197030  39.3519590   6.7069970  63.5802330  38.9295340
   7.1632750  64.3907580  39.1555530   6.3558180  63.2625470  39.7613830
   2.6081750  53.9239980  39.4017860   2.4796380  53.9157880  40.3502780
   1.7843770  54.2623070  39.0508870  14.1290380  67.3789640  34.6004230
  13.9027960  66.6620080  35.1928870  13.7386580  67.1302080  33.7625980
  13.7106630  65.2961580  36.2618390  13.4228330  65.7574270  37.0496270
  14.5058800  64.8359350  36.5302610  11.1014460  58.1753410  46.6126010
  11.4695280  57.3548620  46.9405580  10.2412660  58.2355300  47.0281660
  14.4676490  57.1310350  37.4213570  13.8389650  57.2356020  36.7071800
  13.9728410  57.3507130  38.2107450   6.4360520  59.4096300  38.8371450
   5.7276670  59.8782640  39.2785060   6.7205000  58.7518310  39.4716640
   8.0616450  60.8293000  46.8363980   8.5601700  61.3038820  47.5015830
   8.2039400  59.9056520  47.0434010  10.4675950  56.1346960  40.2767240
  10.3443730  56.1533090  39.3276750  11.4160510  56.1825900  40.3965640
   4.6395540  57.7181380  36.2122160   5.4886070  58.1551530  36.1462350
   4.2726810  58.0301640  37.0394220  15.2683310  57.0460960  47.6792370
  14.7656910  57.7866360  48.0186180  16.0839970  57.4344960  47.3629160
  13.5605320  62.2894140  41.1253730  12.6195460  62.3044370  41.3001420
  13.8749390  61.5030100  41.5714030   3.5386960  63.9713740  34.6857690
   4.3050230  63.8595100  35.2483120   3.6161650  63.2751710  34.0334460
   2.2333720  61.4038810  35.3690580   2.3137310  60.4566320  35.4807980
   3.1253470  61.7345690  35.4751240  10.8771340  66.8460140  51.6086110
  10.2709500  66.8691740  50.8681860  10.5725450  66.1143180  52.1453360
   6.6628140  65.9467920  34.1593040   6.5578780  65.3320270  34.8854420
   6.4952360  65.4233810  33.3756050   6.8142460  64.6324720  50.1382270
   6.0488130  65.2009720  50.0536940   6.9958420  64.3400930  49.2450500
   9.9030870  65.0087950  34.7635030   9.3540970  65.4557250  35.4077770
  10.5250130  64.5037200  35.2872700  13.9565810  66.3630050  50.6957290
  14.6975280  66.7005810  50.1924750  13.1938490  66.5322110  50.1427060
   1.7927600  61.3683320  51.4996820   1.8332940  61.0697190  52.4082050
   2.6473100  61.7690930  51.3404340   5.5705990  63.9678870  36.6600330
   5.9922410  63.8018740  37.5031720   5.6956830  63.1579100  36.1655470
   3.7333410  59.9475420  49.4671310   3.2029870  59.4566370  48.8394650
   4.4021480  60.3759620  48.9329240   8.0833630  62.9916480  33.9077430
   8.6039290  62.2765500  33.5418580   8.7302030  63.6302350  34.2077940
  12.6311470  64.4144880  49.2312500  13.0452490  64.5689960  50.0802920
  11.6962470  64.5400100  49.3938280  13.1033640  61.7541040  51.2351650
  13.6854410  60.9993360  51.1472130  13.2795410  62.2848480  50.4583130
   4.2205710  56.9137790  49.5468600   4.1262580  56.2958540  48.8219470
   3.6403100  57.6404080  49.3198510   6.9867150  55.4711030  46.5795990
   6.5384450  55.4935290  45.7341540   6.3532350  55.0730050  47.1766290
   7.3926700  64.3665360  47.2008430   7.8114810  65.2098090  47.0284670
   6.4735330  64.5037400  46.9715210   9.7290600  62.0981540  48.5846270
   9.8486810  61.5022680  49.3241110  10.5884600  62.1351230  48.1647570
  12.0678500  62.6518730  47.1608780  11.5413720  63.1761350  46.5573920
  12.4109840  63.2846120  47.7918510   4.4664890  60.0412100  33.6058490
   4.2653950  59.1779460  33.9671830   4.2956940  59.9545460  32.6680090
   6.4959370  58.6402890  49.8422090   7.0859060  58.3318740  50.5299910
   5.6779610  58.1682640  49.9981990  11.3152800  58.2568700  50.0755110
  10.6268320  57.5950240  50.0105100  12.0358820  57.8106970  50.5203570
  11.9453200  54.8520330  36.1345370  12.2255490  54.0088230  36.4904790
  11.1718930  55.0843440  36.6484120   3.2647690  57.1412720  33.5936370
   3.5673590  57.1480150  32.6855520   4.0042280  56.7910580  34.0904030
   6.4832620  56.0847340  34.5792570   6.1354620  55.4071330  33.9995020
   6.6845390  55.6236850  35.3935960   2.2877820  66.4455140  34.4266170
   2.7252690  66.9884810  35.0823750   2.7725550  65.6202090  34.4362510
   4.0985540  67.5653180  39.5388400   3.7981080  67.4418150  40.4392310
   3.9923030  66.7061770  39.1304130  16.3233920  64.0897060  36.7449280
  17.0852830  64.6593710  36.8508970  16.3388290  63.5224260  37.5157590
  17.3293890  64.9447160  41.5891210  17.7002720  64.1614480  41.1827180
  17.9695820  65.6336260  41.4108510  14.3127650  66.3283740  47.0021530
  13.4987490  66.7580900  47.2647320  14.7201850  66.9402150  46.3890580
  16.3753090  64.3831430  33.9021800  16.6501930  65.2910310  33.7741020
  16.1863830  64.3193960  34.8383790  12.7728700  57.4076280  35.1975430
  13.1913580  57.2207260  34.3572090  12.4664760  56.5555330  35.5078360
  16.2718430  62.3200420  38.8951230  15.8962030  61.5528350  38.4632520
  15.5421550  62.7023120  39.3826160  15.6618050  61.4671940  48.5290750
  15.4304140  61.2384690  47.6288700  15.9222600  62.3871490  48.4835640
  14.1006120  56.6928370  51.3070450  14.9776300  56.7011770  51.6904450
  14.1126960  55.9559210  50.6962800  15.5469390  60.5457910  42.1958470
  16.0706870  60.0520560  41.5648640  16.1328810  60.6808270  42.9406040
  15.7259110  60.6297780  45.7178020  14.7761820  60.5961320  45.8323010
  15.9072120  61.5397890  45.4827790  15.0369360  59.8031260  38.1350880
  15.5328480  59.5702130  38.9199760  14.8385430  58.9643100  37.7188520
  16.4656520  58.4392210  40.6688560  16.3555800  58.2848250  41.6070830
  17.2264110  57.9113150  40.4263970  14.8122240  54.3786340  47.1271560
  15.4494460  54.9920480  47.4930750  14.9597130  54.4147000  46.1820790
  17.3546790  56.2700130  33.9094700  18.2796100  56.1381310  33.7012990
  17.3322580  56.3492950  34.8631150  17.4285280  57.0410790  36.5351410
  16.6336780  56.9755910  37.0644320  17.6328560  57.9761430  36.5236760
   8.1826720  55.5312530  50.0346660   8.1215610  56.1234360  50.7842070
   9.1227100  55.4238490  49.8896920  10.8201280  55.1882590  49.6738950
  11.4341690  55.5061880  49.0120030  11.3650840  54.7031180  50.2934810
  11.5609320  53.7514730  46.0008240  10.6869160  54.0849840  45.7981170
  11.4520070  53.2787910  46.8260110  12.4681300  55.9585600  47.3849960
  12.1394660  55.1437360  47.0051690  13.4163600  55.9155410  47.2615650
   9.3084140  54.6684570  44.9401150   8.5255930  55.1430070  45.2197910
   9.0147070  53.7639400  44.8314330  13.8605210  55.3707670  42.9850240
  14.3013300  55.3152770  42.1371840  13.5912800  56.2865680  43.0560420
  15.7243780  55.0022910  40.9959060  15.6632180  54.0584130  40.8490080
  16.5035810  55.1103000  41.5412520   7.1938360  57.0871320  40.4517180
   6.3812870  56.7128210  40.1113060   7.6980000  56.3316400  40.7538370
  11.6963340  53.7513770  41.6900250  12.2992710  54.3233980  42.1648770
  10.9556330  54.3153210  41.4674150  14.8397940  54.1535330  36.9640530
  15.0348570  55.0518780  37.2307960  14.0527810  53.9222410  37.4573480
   3.0249700  55.4996100  36.0016840   3.5542460  54.7125900  35.8724790
   3.6578020  56.1787290  36.2352370   5.2187540  55.2371240  39.0562230
   4.5890280  54.5358550  39.2232360   4.6792680  55.9975370  38.8395390
   5.3443100  54.5155220  51.4914720   5.0627370  55.0188820  50.7275540
   5.7262800  53.7176970  51.1256850  11.9458560  53.9308800  52.0695190
  11.8324010  54.2503410  52.9646710  12.7628300  54.3321310  51.7732470
  10.8516710  61.9501270  22.4329930  10.7710760  61.0355880  22.1621640
  10.4381130  62.4468340  21.7269640   8.9834750  63.7280290  24.3139200
   8.2076850  63.2480730  24.6037770   9.6347680  63.0485940  24.1395360
   3.0000580  64.0400100  25.1914960   2.1685460  63.7848810  25.5911470
   3.6081560  64.1110870  25.9272880   8.4243740  66.4037480  24.3209360
   8.3552020  65.4627420  24.1598490   9.1863600  66.4938890  24.8931930
   9.4548910  59.2107860  24.5478290   9.8313730  58.3379740  24.4351960
   9.3568420  59.5466560  23.6568730   3.5853920  57.5833490  20.0095730
   3.6920670  58.4837220  20.3164490   2.6746280  57.5351460  19.7190380
  13.2373030  56.7058300  21.4806630  14.0582650  56.2154870  21.5232110
  13.2707110  57.2955960  22.2338470   5.4261650  60.5519860  24.3420910
   5.9339870  61.0500830  24.9825930   5.9574890  59.7755060  24.1660270
  17.5272580  58.7225050  28.0450260  16.8224750  59.1106760  27.5265370
  17.7930500  59.4175340  28.6471190   3.7097750  55.1918420  28.6084330
   3.7116190  55.7090810  27.8030230   2.8802060  54.7148600  28.5854260
  10.0968840  65.3037730  20.1074230   9.4786110  65.7687180  19.5436950
  10.6092090  65.9965210  20.5243740   4.9600600  64.8313600  26.7857830
   4.6269980  65.4582520  27.4278900   5.1367280  65.3575480  26.0059500
  13.4734510  58.6458680  24.2534170  12.7690080  58.9343570  24.8337280
  13.8346670  59.4558790  23.8933730   3.3913080  56.9028380  26.6154780
   3.7329890  57.7470430  26.3208650   2.4528890  57.0512120  26.7320120
   4.1719700  66.7994400  28.6007010   4.7893700  67.4745480  28.3191460
   3.3112820  67.2082380  28.5094510  16.5421430  58.0913470  24.6443380
  15.5946340  58.1252450  24.7758810  16.8671420  58.9052420  25.0292740
   7.0740970  54.3910650  22.9399370   7.3815950  53.8357540  22.2234870
   6.1441670  54.5255110  22.7572360  13.9201450  66.8294160  20.3197000
  13.8097780  65.8868490  20.4446420  13.9169700  67.1909800  21.2059760
  12.0241470  65.0107780  26.5589440  12.4410260  64.7967890  25.7242900
  12.7481290  65.2680570  27.1298060   9.4621730  62.4559480  19.6759490
   8.5351010  62.3896860  19.9047960   9.6146550  63.3939610  19.5614730
   9.4490810  58.7276480  16.6726650   8.5094480  58.8890440  16.7579110
   9.7674070  59.4462160  16.1262640  15.9703570  63.4095000  26.6505680
  15.1422200  63.4788090  26.1755810  16.5654050  63.9949310  26.1821510
  13.4919020  64.0179780  20.1794740  12.8731440  63.6799330  19.5321040
  13.4743470  63.3739540  20.8873930  12.9345580  60.1964320  27.5960550
  12.5216760  61.0218030  27.8500540  12.2021530  59.6109360  27.4036910
   5.0678370  62.9824220  22.4579220   4.6635370  62.2701470  21.9625120
   5.1541490  62.6377460  23.3467260   5.5360070  66.6691780  24.6218430
   5.2388360  66.0637250  23.9426210   6.4859890  66.7069090  24.5107790
   3.7806990  59.7567430  26.2378260   4.3321580  59.8662770  25.4631510
   4.2950500  60.1305030  26.9533490   4.6278500  66.4073470  31.2726230
   3.7307030  66.6313440  31.5199630   4.6531370  66.5308410  30.3237630
  11.6683720  63.2566590  17.1867490  12.1077000  62.4189020  17.0405310
  12.3812140  63.8895990  17.2731630   3.4549720  63.2786790  29.8483600
   3.3157490  64.1509590  30.2171000   2.5731080  62.9359600  29.7031540
  15.2500860  54.5109400  15.5008530  14.9373520  54.6036230  16.4007600
  16.0113330  55.0890430  15.4505960   1.7683000  61.8769200  19.9585870
   1.6480600  62.6031290  19.3467140   1.4583890  61.1072110  19.4813780
  16.6078140  67.1948440  30.5132930  16.7341200  66.9560320  29.5950110
  16.6499520  66.3632980  30.9855010  16.4602150  59.2480900  31.4782670
  15.8446420  59.7560570  30.9498130  16.1398570  58.3479230  31.4208610
   4.2346660  55.2204270  23.3409540   3.7914810  56.0013810  23.0094060
   4.7931650  55.5434160  24.0480480   8.5216470  58.0872790  28.9444860
   8.0595840  58.2955810  29.7564800   8.1194580  57.2732140  28.6415530
  13.5220980  59.3081740  30.0741520  12.6714570  59.0087490  30.3950590
  13.3622770  59.5523750  29.1625340  10.6170690  60.8083490  32.1740310
  10.9424100  59.9747240  31.8342540  11.4051020  61.3312010  32.3218640
   7.3505480  54.8414970  18.2215370   6.7259660  54.8374840  18.9468680
   7.2635600  53.9745930  17.8251340   6.2722560  55.7651600  25.1999140
   6.5694890  56.6714430  25.1191160   6.8208120  55.2770380  24.5858710
   4.0260880  60.3437840  21.0690790   3.8001800  60.1275010  21.9737410
   3.2453410  60.7766300  20.7236760  11.2558640  60.3501210  19.6681440
  10.6567530  61.0737010  19.4845060  11.8038250  60.2877990  18.8857890
   6.4660090  61.2423420  31.7351060   6.3703690  60.3018150  31.5851460
   7.3092070  61.4638490  31.3399130   9.8623510  58.9864750  21.6984720
  10.2553080  59.3036950  20.8853410  10.2240360  58.1076630  21.8129240
   8.1715680  57.7372060  32.9581580   7.4814000  57.5444260  33.5927670
   8.9147980  58.0206700  33.4905880  10.4478650  61.5770500  25.7935500
   9.7159770  62.0857310  26.1425600  10.0502990  60.7600480  25.4924280
   6.8856040  58.2524700  24.1987990   6.8892100  57.8114650  23.3492530
   7.7807160  58.5742030  24.3059810   2.7358420  58.1351190  23.1582200
   2.3958470  58.6126420  23.9149250   1.9735740  57.6816310  22.7983300
   6.9476190  59.2536780  17.1894750   7.0689010  59.2123260  18.1380570
   6.5624700  60.1160930  17.0341480  10.9104560  57.0304180  25.2058440
  10.9277300  57.4812830  26.0500290  10.6620140  56.1309820  25.4191880
   5.9597690  61.5637920  16.5878050   5.3914590  61.1156170  15.9613960
   6.6686690  61.9230700  16.0543200  14.3375310  54.4436360  31.0444820
  14.6621080  53.7126020  31.5702800  14.3731820  54.1250000  30.1425810
   7.1864010  62.3126480  25.9453400   7.5534140  61.8385050  26.6914740
   6.9969070  63.1868050  26.2861740   4.9763380  61.3535120  28.2637610
   4.6720450  62.2327100  28.4887970   5.9309840  61.4134910  28.2995050
   3.5045170  65.5596110  18.8604460   2.7307430  65.0193730  18.7003180
   4.2339800  65.0402720  18.5222220  14.2633150  64.5561470  24.6530850
  14.9832270  65.0516760  24.2626960  14.0614970  63.8779360  24.0084720
   9.7243090  55.9499430  18.7960240   8.9107700  55.4512600  18.7205550
   9.5305040  56.7897680  18.3796590   9.6451950  64.6270530  30.5399850
   9.5789260  63.7066200  30.2857440   9.0157090  64.7245970  31.2544490
  12.4391480  60.3219080  17.0922400  13.3271100  60.6336310  16.9173740
  12.4096570  59.4491330  16.7002980   3.5482570  65.2276490  22.4983270
   4.0661240  64.4244750  22.4440160   3.0966590  65.1655630  23.3400100
   8.4352070  66.4942770  17.7710570   8.7767770  67.2385000  17.2753890
   7.6064780  66.8073890  18.1335400   4.2340230  62.6522100  32.2948520
   3.9340370  62.7979280  31.3976340   5.0051470  62.0927390  32.2021910
   9.5768680  67.4491100  30.2903650   9.5913220  66.5172060  30.0722560
   8.8693780  67.5350860  30.9293420  14.7105750  61.6330920  16.5602260
  14.6269470  62.0645140  15.7098700  15.4299940  62.0929270  16.9929080
  15.7879890  64.0898440  29.6372230  15.0628080  64.6827220  29.4401620
  16.3155350  64.0821980  28.8385600  11.3179480  65.8158610  23.1356080
  11.6703300  65.2186740  22.4757450  10.4341810  65.4902840  23.3064330
   7.4042760  66.5756300  20.5426490   8.0913890  67.1225510  20.9234080
   6.6175180  67.1197030  20.5776100   6.7069970  63.5802330  20.1551850
   7.1632750  64.3907580  20.3812040   6.3558180  63.2625470  20.9870340
   2.6081750  53.9239980  20.6274370   2.4796380  53.9157880  21.5759290
   1.7843770  54.2623070  20.2765380  14.1290380  67.3789640  15.8260740
  13.9027960  66.6620080  16.4185380  13.7386580  67.1302080  14.9882490
  13.7106630  65.2961580  17.4874900  13.4228330  65.7574270  18.2752780
  14.5058800  64.8359350  17.7559120  11.1014460  58.1753410  27.8382520
  11.4695280  57.3548620  28.1662090  10.2412660  58.2355300  28.2538170
  14.4676490  57.1310350  18.6470080  13.8389650  57.2356020  17.9328310
  13.9728410  57.3507130  19.4363960   6.4360520  59.4096300  20.0627960
   5.7276670  59.8782640  20.5041570   6.7205000  58.7518310  20.6973150
   8.0616450  60.8293000  28.0620490   8.5601700  61.3038820  28.7272340
   8.2039400  59.9056520  28.2690520  10.4675950  56.1346960  21.5023750
  10.3443730  56.1533090  20.5533260  11.4160510  56.1825900  21.6222150
   4.6395540  57.7181380  17.4378670   5.4886070  58.1551530  17.3718860
   4.2726810  58.0301640  18.2650730  15.2683310  57.0460960  28.9048880
  14.7656910  57.7866360  29.2442690  16.0839970  57.4344960  28.5885670
  13.5605320  62.2894140  22.3510240  12.6195460  62.3044370  22.5257930
  13.8749390  61.5030100  22.7970540   3.5386960  63.9713740  15.9114200
   4.3050230  63.8595100  16.4739630   3.6161650  63.2751710  15.2590970
   2.2333720  61.4038810  16.5947090   2.3137310  60.4566320  16.7064490
   3.1253470  61.7345690  16.7007750  10.8771340  66.8460140  32.8342620
  10.2709500  66.8691740  32.0938370  10.5725450  66.1143180  33.3709870
   6.6628140  65.9467920  15.3849550   6.5578780  65.3320270  16.1110930
   6.4952360  65.4233810  14.6012560   6.8142460  64.6324720  31.3638780
   6.0488130  65.2009720  31.2793450   6.9958420  64.3400930  30.4707010
   9.9030870  65.0087950  15.9891540   9.3540970  65.4557250  16.6334280
  10.5250130  64.5037200  16.5129210  13.9565810  66.3630050  31.9213800
  14.6975280  66.7005810  31.4181260  13.1938490  66.5322110  31.3683570
   1.7927600  61.3683320  32.7253330   1.8332940  61.0697190  33.6338560
   2.6473100  61.7690930  32.5660850   5.5705990  63.9678870  17.8856840
   5.9922410  63.8018740  18.7288230   5.6956830  63.1579100  17.3911980
   3.7333410  59.9475420  30.6927820   3.2029870  59.4566370  30.0651160
   4.4021480  60.3759620  30.1585750   8.0833630  62.9916480  15.1333940
   8.6039290  62.2765500  14.7675090   8.7302030  63.6302350  15.4334450
  12.6311470  64.4144880  30.4569010  13.0452490  64.5689960  31.3059430
  11.6962470  64.5400100  30.6194790  13.1033640  61.7541040  32.4608160
  13.6854410  60.9993360  32.3728640  13.2795410  62.2848480  31.6839640
   4.2205710  56.9137790  30.7725110   4.1262580  56.2958540  30.0475980
   3.6403100  57.6404080  30.5455020   6.9867150  55.4711030  27.8052500
   6.5384450  55.4935290  26.9598050   6.3532350  55.0730050  28.4022800
   7.3926700  64.3665360  28.4264940   7.8114810  65.2098090  28.2541180
   6.4735330  64.5037400  28.1971720   9.7290600  62.0981540  29.8102780
   9.8486810  61.5022680  30.5497620  10.5884600  62.1351230  29.3904080
  12.0678500  62.6518730  28.3865290  11.5413720  63.1761350  27.7830430
  12.4109840  63.2846120  29.0175020   4.4664890  60.0412100  14.8315000
   4.2653950  59.1779460  15.1928340   4.2956940  59.9545460  13.8936600
   6.4959370  58.6402890  31.0678600   7.0859060  58.3318740  31.7556420
   5.6779610  58.1682640  31.2238500  11.3152800  58.2568700  31.3011620
  10.6268320  57.5950240  31.2361610  12.0358820  57.8106970  31.7460080
  11.9453200  54.8520330  17.3601880  12.2255490  54.0088230  17.7161300
  11.1718930  55.0843440  17.8740630   3.2647690  57.1412720  14.8192880
   3.5673590  57.1480150  13.9112030   4.0042280  56.7910580  15.3160540
   6.4832620  56.0847340  15.8049080   6.1354620  55.4071330  15.2251530
   6.6845390  55.6236850  16.6192470   2.2877820  66.4455140  15.6522680
   2.7252690  66.9884810  16.3080260   2.7725550  65.6202090  15.6619020
   4.0985540  67.5653180  20.7644910   3.7981080  67.4418150  21.6648820
   3.9923030  66.7061770  20.3560640  16.3233920  64.0897060  17.9705790
  17.0852830  64.6593710  18.0765480  16.3388290  63.5224260  18.7414100
  17.3293890  64.9447160  22.8147720  17.7002720  64.1614480  22.4083690
  17.9695820  65.6336260  22.6365020  14.3127650  66.3283740  28.2278040
  13.4987490  66.7580900  28.4903830  14.7201850  66.9402150  27.6147090
  16.3753090  64.3831430  15.1278310  16.6501930  65.2910310  14.9997530
  16.1863830  64.3193960  16.0640300  12.7728700  57.4076280  16.4231940
  13.1913580  57.2207260  15.5828600  12.4664760  56.5555330  16.7334870
  16.2718430  62.3200420  20.1207740  15.8962030  61.5528350  19.6889030
  15.5421550  62.7023120  20.6082670  15.6618050  61.4671940  29.7547260
  15.4304140  61.2384690  28.8545210  15.9222600  62.3871490  29.7092150
  14.1006120  56.6928370  32.5326960  14.9776300  56.7011770  32.9160960
  14.1126960  55.9559210  31.9219310  15.5469390  60.5457910  23.4214980
  16.0706870  60.0520560  22.7905150  16.1328810  60.6808270  24.1662550
  15.7259110  60.6297780  26.9434530  14.7761820  60.5961320  27.0579520
  15.9072120  61.5397890  26.7084300  15.0369360  59.8031260  19.3607390
  15.5328480  59.5702130  20.1456270  14.8385430  58.9643100  18.9445030
  16.4656520  58.4392210  21.8945070  16.3555800  58.2848250  22.8327340
  17.2264110  57.9113150  21.6520480  14.8122240  54.3786340  28.3528070
  15.4494460  54.9920480  28.7187260  14.9597130  54.4147000  27.4077300
  17.3546790  56.2700130  15.1351210  18.2796100  56.1381310  14.9269500
  17.3322580  56.3492950  16.0887660  17.4285280  57.0410790  17.7607920
  16.6336780  56.9755910  18.2900830  17.6328560  57.9761430  17.7493270
   8.1826720  55.5312530  31.2603170   8.1215610  56.1234360  32.0098580
   9.1227100  55.4238490  31.1153430  10.8201280  55.1882590  30.8995460
  11.4341690  55.5061880  30.2376540  11.3650840  54.7031180  31.5191320
  11.5609320  53.7514730  27.2264750  10.6869160  54.0849840  27.0237680
  11.4520070  53.2787910  28.0516620  12.4681300  55.9585600  28.6106470
  12.1394660  55.1437360  28.2308200  13.4163600  55.9155410  28.4872160
   9.3084140  54.6684570  26.1657660   8.5255930  55.1430070  26.4454420
   9.0147070  53.7639400  26.0570840  13.8605210  55.3707670  24.2106750
  14.3013300  55.3152770  23.3628350  13.5912800  56.2865680  24.2816930
  15.7243780  55.0022910  22.2215570  15.6632180  54.0584130  22.0746590
  16.5035810  55.1103000  22.7669030   7.1938360  57.0871320  21.6773690
   6.3812870  56.7128210  21.3369570   7.6980000  56.3316400  21.9794880
  11.6963340  53.7513770  22.9156760  12.2992710  54.3233980  23.3905280
  10.9556330  54.3153210  22.6930660  14.8397940  54.1535330  18.1897040
  15.0348570  55.0518780  18.4564470  14.0527810  53.9222410  18.6829990
   3.0249700  55.4996100  17.2273350   3.5542460  54.7125900  17.0981300
   3.6578020  56.1787290  17.4608880   5.2187540  55.2371240  20.2818740
   4.5890280  54.5358550  20.4488870   4.6792680  55.9975370  20.0651900
   5.3443100  54.5155220  32.7171230   5.0627370  55.0188820  31.9532050
   5.7262800  53.7176970  32.3513360  11.9458560  53.9308800  33.2951700
  11.8324010  54.2503410  34.1903220  12.7628300  54.3321310  32.9988980
  10.8516710  61.9501270   3.6586440  10.7710760  61.0355880   3.3878150
  10.4381130  62.4468340   2.9526150   8.9834750  63.7280290   5.5395710
   8.2076850  63.2480730   5.8294280   9.6347680  63.0485940   5.3651870
   3.0000580  64.0400100   6.4171470   2.1685460  63.7848810   6.8167980
   3.6081560  64.1110870   7.1529390   8.4243740  66.4037480   5.5465870
   8.3552020  65.4627420   5.3855000   9.1863600  66.4938890   6.1188440
   9.4548910  59.2107860   5.7734800   9.8313730  58.3379740   5.6608470
   9.3568420  59.5466560   4.8825240  13.2373030  56.7058300   2.7063140
  14.0582650  56.2154870   2.7488620  13.2707110  57.2955960   3.4594980
   5.4261650  60.5519860   5.5677420   5.9339870  61.0500830   6.2082440
   5.9574890  59.7755060   5.3916780  17.5272580  58.7225050   9.2706770
  16.8224750  59.1106760   8.7521880  17.7930500  59.4175340   9.8727700
   3.7097750  55.1918420   9.8340840   3.7116190  55.7090810   9.0286740
   2.8802060  54.7148600   9.8110770   4.9600600  64.8313600   8.0114340
   4.6269980  65.4582520   8.6535410   5.1367280  65.3575480   7.2316010
  13.4734510  58.6458680   5.4790680  12.7690080  58.9343570   6.0593790
  13.8346670  59.4558790   5.1190240   3.3913080  56.9028380   7.8411290
   3.7329890  57.7470430   7.5465160   2.4528890  57.0512120   7.9576630
   4.1719700  66.7994400   9.8263520   4.7893700  67.4745480   9.5447970
   3.3112820  67.2082380   9.7351020  16.5421430  58.0913470   5.8699890
  15.5946340  58.1252450   6.0015320  16.8671420  58.9052420   6.2549250
   7.0740970  54.3910650   4.1655880   7.3815950  53.8357540   3.4491380
   6.1441670  54.5255110   3.9828870  12.0241470  65.0107780   7.7845950
  12.4410260  64.7967890   6.9499410  12.7481290  65.2680570   8.3554570
  15.9703570  63.4095000   7.8762190  15.1422200  63.4788090   7.4012320
  16.5654050  63.9949310   7.4078020  12.9345580  60.1964320   8.8217060
  12.5216760  61.0218030   9.0757050  12.2021530  59.6109360   8.6293420
   5.0678370  62.9824220   3.6835730   4.6635370  62.2701470   3.1881630
   5.1541490  62.6377460   4.5723770   5.5360070  66.6691780   5.8474940
   5.2388360  66.0637250   5.1682720   6.4859890  66.7069090   5.7364300
   3.7806990  59.7567430   7.4634770   4.3321580  59.8662770   6.6888020
   4.2950500  60.1305030   8.1790000   4.6278500  66.4073470  12.4982740
   3.7307030  66.6313440  12.7456140   4.6531370  66.5308410  11.5494140
   3.4549720  63.2786790  11.0740110   3.3157490  64.1509590  11.4427510
   2.5731080  62.9359600  10.9288050  16.6078140  67.1948440  11.7389440
  16.7341200  66.9560320  10.8206620  16.6499520  66.3632980  12.2111520
  16.4602150  59.2480900  12.7039180  15.8446420  59.7560570  12.1754640
  16.1398570  58.3479230  12.6465120   4.2346660  55.2204270   4.5666050
   3.7914810  56.0013810   4.2350570   4.7931650  55.5434160   5.2736990
   8.5216470  58.0872790  10.1701370   8.0595840  58.2955810  10.9821310
   8.1194580  57.2732140   9.8672040  13.5220980  59.3081740  11.2998030
  12.6714570  59.0087490  11.6207100  13.3622770  59.5523750  10.3881850
  10.6170690  60.8083490  13.3996820  10.9424100  59.9747240  13.0599050
  11.4051020  61.3312010  13.5475150   6.2722560  55.7651600   6.4255650
   6.5694890  56.6714430   6.3447670   6.8208120  55.2770380   5.8115220
   4.0260880  60.3437840   2.2947300   3.8001800  60.1275010   3.1993920
   3.2453410  60.7766300   1.9493270   6.4660090  61.2423420  12.9607570
   6.3703690  60.3018150  12.8107970   7.3092070  61.4638490  12.5655640
   9.8623510  58.9864750   2.9241230  10.2553080  59.3036950   2.1109920
  10.2240360  58.1076630   3.0385750   8.1715680  57.7372060  14.1838090
   7.4814000  57.5444260  14.8184180   8.9147980  58.0206700  14.7162390
  10.4478650  61.5770500   7.0192010   9.7159770  62.0857310   7.3682110
  10.0502990  60.7600480   6.7180790   6.8856040  58.2524700   5.4244500
   6.8892100  57.8114650   4.5749040   7.7807160  58.5742030   5.5316320
   2.7358420  58.1351190   4.3838710   2.3958470  58.6126420   5.1405760
   1.9735740  57.6816310   4.0239810  10.9104560  57.0304180   6.4314950
  10.9277300  57.4812830   7.2756800  10.6620140  56.1309820   6.6448390
  14.3375310  54.4436360  12.2701330  14.6621080  53.7126020  12.7959310
  14.3731820  54.1250000  11.3682320   7.1864010  62.3126480   7.1709910
   7.5534140  61.8385050   7.9171250   6.9969070  63.1868050   7.5118250
   4.9763380  61.3535120   9.4894120   4.6720450  62.2327100   9.7144480
   5.9309840  61.4134910   9.5251560  14.2633150  64.5561470   5.8787360
  14.9832270  65.0516760   5.4883470  14.0614970  63.8779360   5.2341230
   9.6451950  64.6270530  11.7656360   9.5789260  63.7066200  11.5113950
   9.0157090  64.7245970  12.4801000   3.5482570  65.2276490   3.7239780
   4.0661240  64.4244750   3.6696670   3.0966590  65.1655630   4.5656610
   4.2340230  62.6522100  13.5205030   3.9340370  62.7979280  12.6232850
   5.0051470  62.0927390  13.4278420   9.5768680  67.4491100  11.5160160
   9.5913220  66.5172060  11.2979070   8.8693780  67.5350860  12.1549930
  15.7879890  64.0898440  10.8628740  15.0628080  64.6827220  10.6658130
  16.3155350  64.0821980  10.0642110  11.3179480  65.8158610   4.3612590
  11.6703300  65.2186740   3.7013960  10.4341810  65.4902840   4.5320840
   7.4042760  66.5756300   1.7683000   8.0913890  67.1225510   2.1490590
   6.6175180  67.1197030   1.8032610  11.1014460  58.1753410   9.0639030
  11.4695280  57.3548620   9.3918600  10.2412660  58.2355300   9.4794680
   8.0616450  60.8293000   9.2877000   8.5601700  61.3038820   9.9528850
   8.2039400  59.9056520   9.4947030  10.4675950  56.1346960   2.7280260
  10.3443730  56.1533090   1.7789770  11.4160510  56.1825900   2.8478660
  15.2683310  57.0460960  10.1305390  14.7656910  57.7866360  10.4699200
  16.0839970  57.4344960   9.8142180  13.5605320  62.2894140   3.5766750
  12.6195460  62.3044370   3.7514440  13.8749390  61.5030100   4.0227050
  10.8771340  66.8460140  14.0599130  10.2709500  66.8691740  13.3194880
  10.5725450  66.1143180  14.5966380   6.8142460  64.6324720  12.5895290
   6.0488130  65.2009720  12.5049960   6.9958420  64.3400930  11.6963520
  13.9565810  66.3630050  13.1470310  14.6975280  66.7005810  12.6437770
  13.1938490  66.5322110  12.5940080   1.7927600  61.3683320  13.9509840
   1.8332940  61.0697190  14.8595070   2.6473100  61.7690930  13.7917360
   3.7333410  59.9475420  11.9184330   3.2029870  59.4566370  11.2907670
   4.4021480  60.3759620  11.3842260  12.6311470  64.4144880  11.6825520
  13.0452490  64.5689960  12.5315940  11.6962470  64.5400100  11.8451300
  13.1033640  61.7541040  13.6864670  13.6854410  60.9993360  13.5985150
  13.2795410  62.2848480  12.9096150   4.2205710  56.9137790  11.9981620
   4.1262580  56.2958540  11.2732490   3.6403100  57.6404080  11.7711530
   6.9867150  55.4711030   9.0309010   6.5384450  55.4935290   8.1854560
   6.3532350  55.0730050   9.6279310   7.3926700  64.3665360   9.6521450
   7.8114810  65.2098090   9.4797690   6.4735330  64.5037400   9.4228230
   9.7290600  62.0981540  11.0359290   9.8486810  61.5022680  11.7754130
  10.5884600  62.1351230  10.6160590  12.0678500  62.6518730   9.6121800
  11.5413720  63.1761350   9.0086940  12.4109840  63.2846120  10.2431530
   6.4959370  58.6402890  12.2935110   7.0859060  58.3318740  12.9812930
   5.6779610  58.1682640  12.4495010  11.3152800  58.2568700  12.5268130
  10.6268320  57.5950240  12.4618120  12.0358820  57.8106970  12.9716590
  17.3293890  64.9447160   4.0404230  17.7002720  64.1614480   3.6340200
  17.9695820  65.6336260   3.8621530  14.3127650  66.3283740   9.4534550
  13.4987490  66.7580900   9.7160340  14.7201850  66.9402150   8.8403600
  15.6618050  61.4671940  10.9803770  15.4304140  61.2384690  10.0801720
  15.9222600  62.3871490  10.9348660  14.1006120  56.6928370  13.7583470
  14.9776300  56.7011770  14.1417470  14.1126960  55.9559210  13.1475820
  15.5469390  60.5457910   4.6471490  16.0706870  60.0520560   4.0161660
  16.1328810  60.6808270   5.3919060  15.7259110  60.6297780   8.1691040
  14.7761820  60.5961320   8.2836030  15.9072120  61.5397890   7.9340810
  16.4656520  58.4392210   3.1201580  16.3555800  58.2848250   4.0583850
  17.2264110  57.9113150   2.8776990  14.8122240  54.3786340   9.5784580
  15.4494460  54.9920480   9.9443770  14.9597130  54.4147000   8.6333810
   8.1826720  55.5312530  12.4859680   8.1215610  56.1234360  13.2355090
   9.1227100  55.4238490  12.3409940  10.8201280  55.1882590  12.1251970
  11.4341690  55.5061880  11.4633050  11.3650840  54.7031180  12.7447830
  11.5609320  53.7514730   8.4521260  10.6869160  54.0849840   8.2494190
  11.4520070  53.2787910   9.2773130  12.4681300  55.9585600   9.8362980
  12.1394660  55.1437360   9.4564710  13.4163600  55.9155410   9.7128670
   9.3084140  54.6684570   7.3914170   8.5255930  55.1430070   7.6710930
   9.0147070  53.7639400   7.2827350  13.8605210  55.3707670   5.4363260
  14.3013300  55.3152770   4.5884860  13.5912800  56.2865680   5.5073440
  15.7243780  55.0022910   3.4472080  15.6632180  54.0584130   3.3003100
  16.5035810  55.1103000   3.9925540   7.1938360  57.0871320   2.9030200
   6.3812870  56.7128210   2.5626080   7.6980000  56.3316400   3.2051390
  11.6963340  53.7513770   4.1413270  12.2992710  54.3233980   4.6161790
  10.9556330  54.3153210   3.9187170   5.3443100  54.5155220  13.9427740
   5.0627370  55.0188820  13.1788560   5.7262800  53.7176970  13.5769870
  11.9458560  53.9308800  14.5208210  11.8324010  54.2503410  15.4159730
  12.7628300  54.3321310  14.2245490  10.8516710  43.1757780  78.7560400
  10.7710760  42.2612390  78.4852110  10.4381130  43.6724850  78.0500110
   8.9834750  44.9536800  80.6369670   8.2076850  44.4737240  80.9268240
   9.6347680  44.2742450  80.4625830   3.0000580  45.2656610  81.5145430
   2.1685460  45.0105320  81.9141940   3.6081560  45.3367380  82.2503350
  13.0042180  49.3596990  79.4168800  12.5423710  48.5884230  79.7455970
  13.8167730  49.3863060  79.9221250   2.9801840  49.2996700  81.7103450
   3.2829880  48.4094440  81.5313670   3.7245430  49.8566920  81.4825700
   9.2305490  51.6455000  79.0372790   8.6116930  52.1012500  78.4667230
  10.0857270  51.8006460  78.6362490   8.4243740  47.6293990  80.6439830
   8.3552020  46.6883930  80.4828960   9.1863600  47.7195400  81.2162400
   9.4548910  40.4364370  80.8708760   9.8313730  39.5636250  80.7582430
   9.3568420  40.7723070  79.9799200   3.5853920  38.8090000  76.3326200
   3.6920670  39.7093730  76.6394960   2.6746280  38.7607970  76.0420850
  13.2373030  37.9314810  77.8037100  14.0582650  37.4411380  77.8462580
  13.2707110  38.5212470  78.5568940   5.4261650  41.7776370  80.6651380
   5.9339870  42.2757340  81.3056400   5.9574890  41.0011570  80.4890740
  10.0968840  46.5294240  76.4304700   9.4786110  46.9943690  75.8667420
  10.6092090  47.2221720  76.8474210   4.9600600  46.0570110  83.1088300
   4.6269980  46.6839030  83.7509370   5.1367280  46.5831990  82.3289970
  13.4734510  39.8715190  80.5764640  12.7690080  40.1600080  81.1567750
  13.8346670  40.6815300  80.2164200   3.3913080  38.1284890  82.9385250
   3.7329890  38.9726940  82.6439120   2.4528890  38.2768630  83.0550590
  15.0897290  49.4890320  82.8392120  14.4060810  50.1589430  82.8308790
  15.6291580  49.6870970  82.0736980  16.5421430  39.3169980  80.9673850
  15.5946340  39.3508960  81.0989280  16.8671420  40.1308930  81.3523210
   7.0740970  35.6167160  79.2629840   7.3815950  35.0614050  78.5465340
   6.1441670  35.7511620  79.0802830  12.6256030  51.3334450  81.5537300
  12.6383190  50.9296740  80.6859560  12.0731250  52.1081740  81.4498730
  13.9201450  48.0550670  76.6427470  13.8097780  47.1125000  76.7676890
  13.9169700  48.4166310  77.5290230  12.0241470  46.2364290  82.8819910
  12.4410260  46.0224400  82.0473370  12.7481290  46.4937080  83.4528530
   9.4621730  43.6815990  75.9989960   8.5351010  43.6153370  76.2278430
   9.6146550  44.6196120  75.8845200   9.4490810  39.9532990  72.9957120
   8.5094480  40.1146950  73.0809580   9.7674070  40.6718670  72.4493110
  15.9703570  44.6351510  82.9736150  15.1422200  44.7044600  82.4986280
  16.5654050  45.2205820  82.5051980  13.4919020  45.2436290  76.5025210
  12.8731440  44.9055840  75.8551510  13.4743470  44.5996050  77.2104400
   5.0678370  44.2080730  78.7809690   4.6635370  43.4957980  78.2855590
   5.1541490  43.8633970  79.6697730   5.5360070  47.8948290  80.9448900
   5.2388360  47.2893760  80.2656680   6.4859890  47.9325600  80.8338260
   3.7806990  40.9823940  82.5608730   4.3321580  41.0919280  81.7861980
   4.2950500  41.3561540  83.2763960  11.6683720  44.4823100  73.5097960
  12.1077000  43.6445530  73.3635780  12.3812140  45.1152500  73.5962100
   9.7779100  49.4219170  77.4779200  10.2175010  50.1643500  77.0634590
   9.7165990  49.6645740  78.4018160  15.2500860  35.7365910  71.8239000
  14.9373520  35.8292740  72.7238070  16.0113330  36.3146940  71.7736430
   1.7683000  43.1025710  76.2816340   1.6480600  43.8287800  75.6697610
   1.4583890  42.3328620  75.8044250  12.4449280  52.4088290  74.8342210
  12.2850420  52.1191230  75.7324040  12.2795990  51.6328420  74.2987440
   4.9237660  52.1886820  76.6113830   4.7480140  51.2722360  76.3981630
   4.0693400  52.5474110  76.8511630  12.1475410  49.9175850  73.3940210
  11.4540570  49.9153140  72.7342490  12.8898270  49.4935170  72.9634380
  11.7125340  51.5438560  77.4688700  12.1682290  50.7627940  77.7827320
  12.0517860  52.2545380  78.0129880   4.2346660  36.4460780  79.6640010
   3.7914810  37.2270320  79.3324530   4.7931650  36.7690670  80.3710950
   7.3505480  36.0671480  74.5445840   6.7259660  36.0631350  75.2699150
   7.2635600  35.2002440  74.1481810   6.2722560  36.9908110  81.5229610
   6.5694890  37.8970940  81.4421630   6.8208120  36.5026890  80.9089180
   4.0260880  41.5694350  77.3921260   3.8001800  41.3531520  78.2967880
   3.2453410  42.0022810  77.0467230  11.2558640  41.5757720  75.9911910
  10.6567530  42.2993520  75.8075530  11.8038250  41.5134500  75.2088360
   9.8623510  40.2121260  78.0215190  10.2553080  40.5293460  77.2083880
  10.2240360  39.3333140  78.1359710  10.4478650  42.8027010  82.1165970
   9.7159770  43.3113820  82.4656070  10.0502990  41.9856990  81.8154750
   6.8856040  39.4781210  80.5218460   6.8892100  39.0371160  79.6723000
   7.7807160  39.7998540  80.6290280   2.7358420  39.3607700  79.4812670
   2.3958470  39.8382930  80.2379720   1.9735740  38.9072820  79.1213770
   6.9476190  40.4793290  73.5125220   7.0689010  40.4379770  74.4611040
   6.5624700  41.3417440  73.3571950  10.9104560  38.2560690  81.5288910
  10.9277300  38.7069340  82.3730760  10.6620140  37.3566330  81.7422350
   5.9597690  42.7894430  72.9108520   5.3914590  42.3412680  72.2844430
   6.6686690  43.1487210  72.3773670   7.1864010  43.5382990  82.2683870
   7.5534140  43.0641560  83.0145210   6.9969070  44.4124560  82.6092210
   3.5045170  46.7852620  75.1834930   2.7307430  46.2450240  75.0233650
   4.2339800  46.2659230  74.8452690  14.2633150  45.7817980  80.9761320
  14.9832270  46.2773270  80.5857430  14.0614970  45.1035870  80.3315190
   9.7243090  37.1755940  75.1190710   8.9107700  36.6769110  75.0436020
   9.5305040  38.0154190  74.7027060  12.4391480  41.5475590  73.4152870
  13.3271100  41.8592820  73.2404210  12.4096570  40.6747840  73.0233450
   3.5482570  46.4533000  78.8213740   4.0661240  45.6501260  78.7670630
   3.0966590  46.3912140  79.6630570   8.4352070  47.7199280  74.0941040
   8.7767770  48.4641510  73.5984360   7.6064780  48.0330400  74.4565870
  14.7105750  42.8587430  72.8832730  14.6269470  43.2901650  72.0329170
  15.4299940  43.3185780  73.3159550  15.7393000  49.7129690  75.6114860
  15.0969160  49.0585310  75.8858580  15.3523660  50.1184780  74.8355530
  11.3179480  47.0415120  79.4586550  11.6703300  46.4443250  78.7987920
  10.4341810  46.7159350  79.6294800   7.4042760  47.8012810  76.8656960
   8.0913890  48.3482020  77.2464550   6.6175180  48.3453540  76.9006570
   6.7069970  44.8058840  76.4782320   7.1632750  45.6164090  76.7042510
   6.3558180  44.4881980  77.3100810   2.6081750  35.1496490  76.9504840
   2.4796380  35.1414390  77.8989760   1.7843770  35.4879580  76.5995850
  10.2834660  48.3197530  82.4252070  10.9256890  47.6190690  82.5384240
  10.8084010  49.0995970  82.2448960  14.1290380  48.6046150  72.1491210
  13.9027960  47.8876590  72.7415850  13.7386580  48.3558590  71.3112960
  13.7106630  46.5218090  73.8105370  13.4228330  46.9830780  74.5983250
  14.5058800  46.0615860  74.0789590   5.9275030  50.0144210  73.7409340
   5.9185130  50.7473900  73.1253850   5.0073390  49.7675790  73.8336300
  14.4676490  38.3566860  74.9700550  13.8389650  38.4612530  74.2558780
  13.9728410  38.5763640  75.7594430   8.9134630  50.0772450  72.4034530
   9.0146610  49.8736440  71.4736510   8.0136370  49.8230730  72.6082310
   6.4360520  40.6352810  76.3858430   5.7276670  41.1039150  76.8272040
   6.7205000  39.9774820  77.0203620  10.4675950  37.3603470  77.8254220
  10.3443730  37.3789600  76.8763730  11.4160510  37.4082410  77.9452620
   7.5552740  52.5958770  77.0982200   7.8094240  52.5580160  76.1761570
   6.6065220  52.4692100  77.0910450   4.6395540  38.9437890  73.7609140
   5.4886070  39.3808040  73.6949330   4.2726810  39.2558150  74.5881200
  13.5605320  43.5150650  78.6740710  12.6195460  43.5300880  78.8488400
  13.8749390  42.7286610  79.1201010   3.5386960  45.1970250  72.2344670
   4.3050230  45.0851610  72.7970100   3.6161650  44.5008220  71.5821440
   2.2333720  42.6295320  72.9177560   2.3137310  41.6822830  73.0294960
   3.1253470  42.9602200  73.0238220  15.5630900  50.6859500  80.3494970
  15.6878320  51.5090670  80.8218780  16.4296460  50.4750230  80.0019120
   3.0348430  52.7790710  80.0212100   3.7710910  52.2306170  80.2920670
   3.4189350  53.6446720  79.8818090   6.1450740  51.9521020  71.8437670
   6.9379350  52.2409850  71.3919460   5.6255090  51.5213190  71.1650150
  15.1980910  51.1791150  73.2674410  14.9122420  50.7656290  72.4528590
  15.0000460  52.1078860  73.1474930   6.6628140  47.1724430  71.7080020
   6.5578780  46.5576780  72.4341400   6.4952360  46.6490320  70.9243030
   9.9030870  46.2344460  72.3122010   9.3540970  46.6813760  72.9564750
  10.5250130  45.7293710  72.8359680   5.5705990  45.1935380  74.2087310
   5.9922410  45.0275250  75.0518700   5.6956830  44.3835610  73.7142450
   8.0833630  44.2172990  71.4564410   8.6039290  43.5022010  71.0905560
   8.7302030  44.8558860  71.7564920   4.4664890  41.2668610  71.1545470
   4.2653950  40.4035970  71.5158810   4.2956940  41.1801970  70.2167070
  11.9453200  36.0776840  73.6832350  12.2255490  35.2344740  74.0391770
  11.1718930  36.3099950  74.1971100   3.2647690  38.3669230  71.1423350
   3.5673590  38.3736660  70.2342500   4.0042280  38.0167090  71.6391010
   6.4832620  37.3103850  72.1279550   6.1354620  36.6327840  71.5482000
   6.6845390  36.8493360  72.9422940   8.6481660  52.2984600  73.7466150
   9.5432450  52.6369570  73.7684910   8.6799290  51.5764010  73.1190430
   2.2877820  47.6711650  71.9753150   2.7252690  48.2141320  72.6310730
   2.7725550  46.8458600  71.9849490   4.0985540  48.7909690  77.0875380
   3.7981080  48.6674660  77.9879290   3.9923030  47.9318280  76.6791110
  16.8677460  48.5706090  71.7902060  16.0370420  48.6382740  72.2609290
  17.0449290  49.4610210  71.4868920  16.3233920  45.3153570  74.2936260
  17.0852830  45.8850220  74.3995950  16.3388290  44.7480770  75.0644570
  17.3293890  46.1703670  79.1378190  17.7002720  45.3870990  78.7314160
  17.9695820  46.8592770  78.9595490  16.3753090  45.6087940  71.4508780
  16.6501930  46.5166820  71.3228000  16.1863830  45.5450470  72.3870770
  12.7728700  38.6332790  72.7462410  13.1913580  38.4463770  71.9059070
  12.4664760  37.7811840  73.0565340  16.2718430  43.5456930  76.4438210
  15.8962030  42.7784860  76.0119500  15.5421550  43.9279630  76.9313140
  15.5469390  41.7714420  79.7445450  16.0706870  41.2777070  79.1135620
  16.1328810  41.9064780  80.4893020  15.7259110  41.8554290  83.2665000
  14.7761820  41.8217830  83.3809990  15.9072120  42.7654400  83.0314770
  15.0369360  41.0287770  75.6837860  15.5328480  40.7958640  76.4686740
  14.8385430  40.1899610  75.2675500  16.4656520  39.6648720  78.2175540
  16.3555800  39.5104760  79.1557810  17.2264110  39.1369660  77.9750950
  17.3546790  37.4956640  71.4581680  18.2796100  37.3637820  71.2499970
  17.3322580  37.5749460  72.4118130  17.4285280  38.2667300  74.0838390
  16.6336780  38.2012420  74.6131300  17.6328560  39.2017940  74.0723740
  14.3703700  52.3058850  78.0776780  14.9662770  51.9843420  77.4011200
  14.6281850  51.8330670  78.8690050  14.9215910  52.9554150  81.9074510
  14.4618880  53.7069960  81.5332530  14.2928370  52.2360620  81.8489310
   5.3511630  51.2642390  81.0822640   5.8676650  50.6529750  80.5570900
   6.0009010  51.7671170  81.5733650   8.0907130  52.1550880  81.9091620
   8.3784940  51.9005180  81.0324630   8.6030350  51.6028240  82.4997190
   9.3084140  35.8941080  82.4888130   8.5255930  36.3686580  82.7684890
   9.0147070  34.9895910  82.3801310  13.8605210  36.5964180  80.5337220
  14.3013300  36.5409280  79.6858820  13.5912800  37.5122190  80.6047400
  15.7243780  36.2279420  78.5446040  15.6632180  35.2840640  78.3977060
  16.5035810  36.3359510  79.0899500   7.1938360  38.3127830  78.0004160
   6.3812870  37.9384720  77.6600040   7.6980000  37.5572910  78.3025350
  11.6963340  34.9770280  79.2387230  12.2992710  35.5490490  79.7135750
  10.9556330  35.5409720  79.0161130  14.8397940  35.3791840  74.5127510
  15.0348570  36.2775290  74.7794940  14.0527810  35.1478920  75.0060460
   3.0249700  36.7252610  73.5503820   3.5542460  35.9382410  73.4211770
   3.6578020  37.4043800  73.7839350   5.2187540  36.4627750  76.6049210
   4.5890280  35.7615060  76.7719340   4.6792680  37.2231880  76.3882370
  16.3924550  52.6192550  76.2734070  16.5676740  51.9330290  75.6294990
  15.6946120  53.1439600  75.8810740   4.2352200  53.0087390  73.8269380
   4.9671020  52.7246670  73.2793270   4.4945870  52.7700670  74.7168760
   3.3966990  49.1252120  73.8315710   2.7675870  49.5937220  74.3801540
   3.5114820  48.2801340  74.2661900  10.8516710  43.1757780  59.9816910
  10.7710760  42.2612390  59.7108620  10.4381130  43.6724850  59.2756620
   8.9834750  44.9536800  61.8626180   8.2076850  44.4737240  62.1524750
   9.6347680  44.2742450  61.6882340   3.0000580  45.2656610  62.7401940
   2.1685460  45.0105320  63.1398450   3.6081560  45.3367380  63.4759860
  13.0042180  49.3596990  60.6425310  12.5423710  48.5884230  60.9712480
  13.8167730  49.3863060  61.1477760   2.9801840  49.2996700  62.9359960
   3.2829880  48.4094440  62.7570180   3.7245430  49.8566920  62.7082210
   9.2305490  51.6455000  60.2629300   8.6116930  52.1012500  59.6923740
  10.0857270  51.8006460  59.8619000   8.4243740  47.6293990  61.8696340
   8.3552020  46.6883930  61.7085470   9.1863600  47.7195400  62.4418910
   9.4548910  40.4364370  62.0965270   9.8313730  39.5636250  61.9838940
   9.3568420  40.7723070  61.2055710   3.5853920  38.8090000  57.5582710
   3.6920670  39.7093730  57.8651470   2.6746280  38.7607970  57.2677360
  13.2373030  37.9314810  59.0293610  14.0582650  37.4411380  59.0719090
  13.2707110  38.5212470  59.7825450   5.4261650  41.7776370  61.8907890
   5.9339870  42.2757340  62.5312910   5.9574890  41.0011570  61.7147250
  17.5272580  39.9481560  65.5937240  16.8224750  40.3363270  65.0752350
  17.7930500  40.6431850  66.1958170   3.7097750  36.4174930  66.1571310
   3.7116190  36.9347320  65.3517210   2.8802060  35.9405110  66.1341240
  10.0968840  46.5294240  57.6561210   9.4786110  46.9943690  57.0923930
  10.6092090  47.2221720  58.0730720   4.9600600  46.0570110  64.3344810
   4.6269980  46.6839030  64.9765880   5.1367280  46.5831990  63.5546480
  13.4734510  39.8715190  61.8021150  12.7690080  40.1600080  62.3824260
  13.8346670  40.6815300  61.4420710   3.3913080  38.1284890  64.1641760
   3.7329890  38.9726940  63.8695630   2.4528890  38.2768630  64.2807100
   4.1719700  48.0250910  66.1493990   4.7893700  48.7001990  65.8678440
   3.3112820  48.4338890  66.0581490  15.0897290  49.4890320  64.0648630
  14.4060810  50.1589430  64.0565300  15.6291580  49.6870970  63.2993490
   7.0740970  35.6167160  60.4886350   7.3815950  35.0614050  59.7721850
   6.1441670  35.7511620  60.3059340  12.6256030  51.3334450  62.7793810
  12.6383190  50.9296740  61.9116070  12.0731250  52.1081740  62.6755240
  13.9201450  48.0550670  57.8683980  13.8097780  47.1125000  57.9933400
  13.9169700  48.4166310  58.7546740  12.0241470  46.2364290  64.1076420
  12.4410260  46.0224400  63.2729880  12.7481290  46.4937080  64.6785040
   9.4621730  43.6815990  57.2246470   8.5351010  43.6153370  57.4534940
   9.6146550  44.6196120  57.1101710   9.4490810  39.9532990  54.2213630
   8.5094480  40.1146950  54.3066090   9.7674070  40.6718670  53.6749620
  15.9703570  44.6351510  64.1992660  15.1422200  44.7044600  63.7242790
  16.5654050  45.2205820  63.7308490  13.4919020  45.2436290  57.7281720
  12.8731440  44.9055840  57.0808020  13.4743470  44.5996050  58.4360910
  12.9345580  41.4220830  65.1447530  12.5216760  42.2474540  65.3987520
  12.2021530  40.8365870  64.9523890   5.0678370  44.2080730  60.0066200
   4.6635370  43.4957980  59.5112100   5.1541490  43.8633970  60.8954240
   5.5360070  47.8948290  62.1705410   5.2388360  47.2893760  61.4913190
   6.4859890  47.9325600  62.0594770   3.7806990  40.9823940  63.7865240
   4.3321580  41.0919280  63.0118490   4.2950500  41.3561540  64.5020470
  13.6245680  51.4680160  65.8328510  13.1476240  52.2752350  65.6401120
  12.9407470  50.8158490  65.9854720   4.6278500  47.6329980  68.8213210
   3.7307030  47.8569950  69.0686610   4.6531370  47.7564920  67.8724610
  11.6683720  44.4823100  54.7354470  12.1077000  43.6445530  54.5892290
  12.3812140  45.1152500  54.8218610   3.4549720  44.5043300  67.3970580
   3.3157490  45.3766100  67.7657980   2.5731080  44.1616110  67.2518520
   9.7779100  49.4219170  58.7035710  10.2175010  50.1643500  58.2891100
   9.7165990  49.6645740  59.6274670   5.2530070  50.4465000  69.6055730
   5.2245500  50.8507950  68.7384160   5.0895040  49.5175360  69.4427330
   1.7683000  43.1025710  57.5072850   1.6480600  43.8287800  56.8954120
   1.4583890  42.3328620  57.0300760  17.2044890  51.2292100  70.9019900
  17.6804610  51.7074990  71.5808980  17.8252050  51.1609590  70.1765400
  16.6078140  48.4204950  68.0619910  16.7341200  48.1816830  67.1437090
  16.6499520  47.5889490  68.5341990  10.4694880  52.1232950  66.6314720
  10.9839550  52.0340960  67.4337150   9.6263960  52.4692650  66.9242630
  12.4449280  52.4088290  56.0598720  12.2850420  52.1191230  56.9580550
  12.2795990  51.6328420  55.5243950   4.9237660  52.1886820  57.8370340
   4.7480140  51.2722360  57.6238140   4.0693400  52.5474110  58.0768140
  12.1475410  49.9175850  54.6196720  11.4540570  49.9153140  53.9599000
  12.8898270  49.4935170  54.1890890  11.7125340  51.5438560  58.6945210
  12.1682290  50.7627940  59.0083830  12.0517860  52.2545380  59.2386390
  16.4602150  40.4737410  69.0269650  15.8446420  40.9817080  68.4985110
  16.1398570  39.5735740  68.9695590   4.2346660  36.4460780  60.8896520
   3.7914810  37.2270320  60.5581040   4.7931650  36.7690670  61.5967460
   8.5216470  39.3129300  66.4931840   8.0595840  39.5212320  67.3051780
   8.1194580  38.4988650  66.1902510  13.5220980  40.5338250  67.6228500
  12.6714570  40.2344000  67.9437570  13.3622770  40.7780260  66.7112320
  10.6170690  42.0340000  69.7227290  10.9424100  41.2003750  69.3829520
  11.4051020  42.5568520  69.8705620   7.3505480  36.0671480  55.7702350
   6.7259660  36.0631350  56.4955660   7.2635600  35.2002440  55.3738320
   6.2722560  36.9908110  62.7486120   6.5694890  37.8970940  62.6678140
   6.8208120  36.5026890  62.1345690   4.0260880  41.5694350  58.6177770
   3.8001800  41.3531520  59.5224390   3.2453410  42.0022810  58.2723740
  11.2558640  41.5757720  57.2168420  10.6567530  42.2993520  57.0332040
  11.8038250  41.5134500  56.4344870   6.4660090  42.4679930  69.2838040
   6.3703690  41.5274660  69.1338440   7.3092070  42.6895000  68.8886110
   9.8623510  40.2121260  59.2471700  10.2553080  40.5293460  58.4340390
  10.2240360  39.3333140  59.3616220   8.1715680  38.9628570  70.5068560
   7.4814000  38.7700770  71.1414650   8.9147980  39.2463210  71.0392860
  10.4478650  42.8027010  63.3422480   9.7159770  43.3113820  63.6912580
  10.0502990  41.9856990  63.0411260   6.8856040  39.4781210  61.7474970
   6.8892100  39.0371160  60.8979510   7.7807160  39.7998540  61.8546790
   2.7358420  39.3607700  60.7069180   2.3958470  39.8382930  61.4636230
   1.9735740  38.9072820  60.3470280   6.9476190  40.4793290  54.7381730
   7.0689010  40.4379770  55.6867550   6.5624700  41.3417440  54.5828460
  10.9104560  38.2560690  62.7545420  10.9277300  38.7069340  63.5987270
  10.6620140  37.3566330  62.9678860   5.9597690  42.7894430  54.1365030
   5.3914590  42.3412680  53.5100940   6.6686690  43.1487210  53.6030180
  14.3375310  35.6692870  68.5931800  14.6621080  34.9382530  69.1189780
  14.3731820  35.3506510  67.6912790   7.1864010  43.5382990  63.4940380
   7.5534140  43.0641560  64.2401720   6.9969070  44.4124560  63.8348720
   4.9763380  42.5791630  65.8124590   4.6720450  43.4583610  66.0374950
   5.9309840  42.6391420  65.8482030   3.5045170  46.7852620  56.4091440
   2.7307430  46.2450240  56.2490160   4.2339800  46.2659230  56.0709200
  14.2633150  45.7817980  62.2017830  14.9832270  46.2773270  61.8113940
  14.0614970  45.1035870  61.5571700   9.7243090  37.1755940  56.3447220
   8.9107700  36.6769110  56.2692530   9.5305040  38.0154190  55.9283570
   9.6451950  45.8527040  68.0886830   9.5789260  44.9322710  67.8344420
   9.0157090  45.9502480  68.8031470  12.4391480  41.5475590  54.6409380
  13.3271100  41.8592820  54.4660720  12.4096570  40.6747840  54.2489960
   3.5482570  46.4533000  60.0470250   4.0661240  45.6501260  59.9927140
   3.0966590  46.3912140  60.8887080   8.4352070  47.7199280  55.3197550
   8.7767770  48.4641510  54.8240870   7.6064780  48.0330400  55.6822380
   4.2340230  43.8778610  69.8435500   3.9340370  44.0235790  68.9463320
   5.0051470  43.3183900  69.7508890   9.5768680  48.6747610  67.8390630
   9.5913220  47.7428570  67.6209540   8.8693780  48.7607370  68.4780400
  14.7105750  42.8587430  54.1089240  14.6269470  43.2901650  53.2585680
  15.4299940  43.3185780  54.5416060  15.7879890  45.3154950  67.1859210
  15.0628080  45.9083730  66.9888600  16.3155350  45.3078490  66.3872580
  15.7393000  49.7129690  56.8371370  15.0969160  49.0585310  57.1115090
  15.3523660  50.1184780  56.0612040  11.3179480  47.0415120  60.6843060
  11.6703300  46.4443250  60.0244430  10.4341810  46.7159350  60.8551310
   7.4042760  47.8012810  58.0913470   8.0913890  48.3482020  58.4721060
   6.6175180  48.3453540  58.1263080   6.7069970  44.8058840  57.7038830
   7.1632750  45.6164090  57.9299020   6.3558180  44.4881980  58.5357320
   9.0102580  50.3165180  64.9331130   9.6544800  50.5224560  65.6104550
   9.3732020  49.5553580  64.4801980   2.6081750  35.1496490  58.1761350
   2.4796380  35.1414390  59.1246270   1.7843770  35.4879580  57.8252360
  10.2834660  48.3197530  63.6508580  10.9256890  47.6190690  63.7640750
  10.8084010  49.0995970  63.4705470  14.1290380  48.6046150  53.3747720
  13.9027960  47.8876590  53.9672360  13.7386580  48.3558590  52.5369470
  12.0572280  49.1192430  66.8544640  12.3928520  49.7059120  67.5322560
  11.1372620  48.9885140  67.0842430  13.7106630  46.5218090  55.0361880
  13.4228330  46.9830780  55.8239760  14.5058800  46.0615860  55.3046100
   7.8860860  49.1683760  70.0232700   7.5657730  48.4493000  70.5678390
   7.2119220  49.8438830  70.0968760   5.9275030  50.0144210  54.9665850
   5.9185130  50.7473900  54.3510360   5.0073390  49.7675790  55.0592810
  11.1014460  39.4009920  65.3869500  11.4695280  38.5805130  65.7149070
  10.2412660  39.4611810  65.8025150   8.9134630  50.0772450  53.6291040
   9.0146610  49.8736440  52.6993020   8.0136370  49.8230730  53.8338820
   6.4360520  40.6352810  57.6114940   5.7276670  41.1039150  58.0528550
   6.7205000  39.9774820  58.2460130   8.0616450  42.0549510  65.6107470
   8.5601700  42.5295330  66.2759320   8.2039400  41.1313030  65.8177500
  10.4675950  37.3603470  59.0510730  10.3443730  37.3789600  58.1020240
  11.4160510  37.4082410  59.1709130   7.5552740  52.5958770  58.3238710
   7.8094240  52.5580160  57.4018080   6.6065220  52.4692100  58.3166960
   4.6395540  38.9437890  54.9865650   5.4886070  39.3808040  54.9205840
   4.2726810  39.2558150  55.8137710  15.2683310  38.2717470  66.4535860
  14.7656910  39.0122870  66.7929670  16.0839970  38.6601470  66.1372650
  13.5605320  43.5150650  59.8997220  12.6195460  43.5300880  60.0744910
  13.8749390  42.7286610  60.3457520   3.5386960  45.1970250  53.4601180
   4.3050230  45.0851610  54.0226610   3.6161650  44.5008220  52.8077950
   2.2333720  42.6295320  54.1434070   2.3137310  41.6822830  54.2551470
   3.1253470  42.9602200  54.2494730  15.5630900  50.6859500  61.5751480
  15.6878320  51.5090670  62.0475290  16.4296460  50.4750230  61.2275630
   3.0348430  52.7790710  61.2468610   3.7710910  52.2306170  61.5177180
   3.4189350  53.6446720  61.1074600   2.0406710  51.9636780  70.4354190
   2.8419440  52.2848830  70.8489590   1.5258530  51.6032360  71.1574100
   6.1450740  51.9521020  53.0694180   6.9379350  52.2409850  52.6175970
   5.6255090  51.5213190  52.3906660  10.8771340  48.0716650  70.3829600
  10.2709500  48.0948250  69.6425350  10.5725450  47.3399690  70.9196850
  12.3071710  51.7996940  68.9939010  13.2593460  51.7154960  68.9439250
  12.1599930  52.4638650  69.6672800  15.1980910  51.1791150  54.4930920
  14.9122420  50.7656290  53.6785100  15.0000460  52.1078860  54.3731440
   6.6628140  47.1724430  52.9336530   6.5578780  46.5576780  53.6597910
   6.4952360  46.6490320  52.1499540   6.8142460  45.8581230  68.9125760
   6.0488130  46.4266230  68.8280430   6.9958420  45.5657440  68.0193990
   9.9030870  46.2344460  53.5378520   9.3540970  46.6813760  54.1821260
  10.5250130  45.7293710  54.0616190  13.9565810  47.5886560  69.4700780
  14.6975280  47.9262320  68.9668240  13.1938490  47.7578620  68.9170550
   1.7927600  42.5939830  70.2740310   1.8332940  42.2953700  71.1825540
   2.6473100  42.9947440  70.1147830   5.5705990  45.1935380  55.4343820
   5.9922410  45.0275250  56.2775210   5.6956830  44.3835610  54.9398960
   3.7333410  41.1731930  68.2414800   3.2029870  40.6822880  67.6138140
   4.4021480  41.6016130  67.7072730   8.0833630  44.2172990  52.6820920
   8.6039290  43.5022010  52.3162070   8.7302030  44.8558860  52.9821430
  12.6311470  45.6401390  68.0055990  13.0452490  45.7946470  68.8546410
  11.6962470  45.7656610  68.1681770  13.1033640  42.9797550  70.0095140
  13.6854410  42.2249870  69.9215620  13.2795410  43.5104990  69.2326620
   4.2205710  38.1394300  68.3212090   4.1262580  37.5215050  67.5962960
   3.6403100  38.8660590  68.0942000   6.9867150  36.6967540  65.3539480
   6.5384450  36.7191800  64.5085030   6.3532350  36.2986560  65.9509780
   7.3926700  45.5921870  65.9751920   7.8114810  46.4354600  65.8028160
   6.4735330  45.7293910  65.7458700   9.7290600  43.3238050  67.3589760
   9.8486810  42.7279190  68.0984600  10.5884600  43.3607740  66.9391060
  12.0678500  43.8775240  65.9352270  11.5413720  44.4017860  65.3317410
  12.4109840  44.5102630  66.5662000   4.4664890  41.2668610  52.3801980
   4.2653950  40.4035970  52.7415320   4.2956940  41.1801970  51.4423580
   5.2434120  51.8974880  67.0909650   4.7055210  52.6220940  66.7718350
   5.4968080  51.4205220  66.3006990   6.4959370  39.8659400  68.6165580
   7.0859060  39.5575250  69.3043400   5.6779610  39.3939150  68.7725480
  11.3152800  39.4825210  68.8498600  10.6268320  38.8206750  68.7848590
  12.0358820  39.0363480  69.2947060   3.2647690  38.3669230  52.3679860
   3.5673590  38.3736660  51.4599010   4.0042280  38.0167090  52.8647520
   8.0996330  53.1326090  67.3496300   8.0255030  54.0361230  67.6568670
   7.1975170  52.8137990  67.3218370   6.4832620  37.3103850  53.3536060
   6.1354620  36.6327840  52.7738510   6.6845390  36.8493360  54.1679450
   8.6481660  52.2984600  54.9722660   9.5432450  52.6369570  54.9941420
   8.6799290  51.5764010  54.3446940   2.2877820  47.6711650  53.2009660
   2.7252690  48.2141320  53.8567240   2.7725550  46.8458600  53.2106000
   4.0985540  48.7909690  58.3131890   3.7981080  48.6674660  59.2135800
   3.9923030  47.9318280  57.9047620  15.6276010  50.8288270  67.6788860
  15.0278000  50.8880830  66.9352780  15.7569910  49.8893250  67.8085710
  14.3127650  47.5540250  65.7765020  13.4987490  47.9837410  66.0390810
  14.7201850  48.1658660  65.1634070  16.3753090  45.6087940  52.6765290
  16.6501930  46.5166820  52.5484510  16.1863830  45.5450470  53.6127280
  15.6618050  42.6928450  67.3034240  15.4304140  42.4641200  66.4032190
  15.9222600  43.6128000  67.2579130  14.1006120  37.9184880  70.0813940
  14.9776300  37.9268280  70.4647940  14.1126960  37.1815720  69.4706290
  15.7259110  41.8554290  64.4921510  14.7761820  41.8217830  64.6066500
  15.9072120  42.7654400  64.2571280  15.0369360  41.0287770  56.9094370
  15.5328480  40.7958640  57.6943250  14.8385430  40.1899610  56.4932010
  14.8122240  35.6042850  65.9015050  15.4494460  36.2176990  66.2674240
  14.9597130  35.6403510  64.9564280  14.3703700  52.3058850  59.3033290
  14.9662770  51.9843420  58.6267710  14.6281850  51.8330670  60.0946560
   2.2766270  48.7376760  69.4523920   2.2335900  48.3669670  70.3338380
   2.4077280  49.6754330  69.5925740   5.9772300  50.2936350  65.0533640
   5.7363660  50.5610910  64.1664160   6.9174940  50.4642080  65.1084500
   8.1826720  36.7569040  68.8090150   8.1215610  37.3490870  69.5585560
   9.1227100  36.6495000  68.6640410  10.8201280  36.4139100  68.4482440
  11.4341690  36.7318390  67.7863520  11.3650840  35.9287690  69.0678300
  17.2376460  52.3130730  65.8544280  16.7434740  52.7099600  65.1371410
  16.6289750  51.6879940  66.2481560   2.1154300  51.6839010  66.5721700
   1.5214620  51.5523710  67.3111740   2.1078140  50.8477150  66.1063800
  11.5609320  34.9771240  64.7751730  10.6869160  35.3106350  64.5724660
  11.4520070  34.5044420  65.6003600  12.4681300  37.1842110  66.1593450
  12.1394660  36.3693870  65.7795180  13.4163600  37.1411920  66.0359140
  14.9215910  52.9554150  63.1331020  14.4618880  53.7069960  62.7589040
  14.2928370  52.2360620  63.0745820   5.3511630  51.2642390  62.3079150
   5.8676650  50.6529750  61.7827410   6.0009010  51.7671170  62.7990160
   8.0907130  52.1550880  63.1348130   8.3784940  51.9005180  62.2581140
   8.6030350  51.6028240  63.7253700   9.3084140  35.8941080  63.7144640
   8.5255930  36.3686580  63.9941400   9.0147070  34.9895910  63.6057820
  13.8605210  36.5964180  61.7593730  14.3013300  36.5409280  60.9115330
  13.5912800  37.5122190  61.8303910   7.1938360  38.3127830  59.2260670
   6.3812870  37.9384720  58.8856550   7.6980000  37.5572910  59.5281860
  11.6963340  34.9770280  60.4643740  12.2992710  35.5490490  60.9392260
  10.9556330  35.5409720  60.2417640   3.0249700  36.7252610  54.7760330
   3.5542460  35.9382410  54.6468280   3.6578020  37.4043800  55.0095860
   5.2187540  36.4627750  57.8305720   4.5890280  35.7615060  57.9975850
   4.6792680  37.2231880  57.6138880   8.1579490  53.0766980  70.5016330
   9.0846800  52.8411250  70.5452290   8.1429920  53.9038980  70.0202360
  16.3924550  52.6192550  57.4990580  16.5676740  51.9330290  56.8551500
  15.6946120  53.1439600  57.1067250   5.3443100  35.7411730  70.2658210
   5.0627370  36.2445330  69.5019030   5.7262800  34.9433480  69.9000340
   4.2352200  53.0087390  55.0525890   4.9671020  52.7246670  54.5049780
   4.4945870  52.7700670  55.9425270   3.3966990  49.1252120  55.0572220
   2.7675870  49.5937220  55.6058050   3.5114820  48.2801340  55.4918410
  11.9458560  35.1565310  70.8438680  11.8324010  35.4759920  71.7390200
  12.7628300  35.5577820  70.5475960  14.7257050  52.3036840  70.3257370
  15.5182370  51.8086070  70.1183330  15.0190200  52.9826980  70.9332980
  10.8516710  43.1757780  41.2073420  10.7710760  42.2612390  40.9365130
  10.4381130  43.6724850  40.5013130   8.9834750  44.9536800  43.0882690
   8.2076850  44.4737240  43.3781260   9.6347680  44.2742450  42.9138850
   3.0000580  45.2656610  43.9658450   2.1685460  45.0105320  44.3654960
   3.6081560  45.3367380  44.7016370  13.0042180  49.3596990  41.8681820
  12.5423710  48.5884230  42.1968990  13.8167730  49.3863060  42.3734270
   2.9801840  49.2996700  44.1616470   3.2829880  48.4094440  43.9826690
   3.7245430  49.8566920  43.9338720   9.2305490  51.6455000  41.4885810
   8.6116930  52.1012500  40.9180250  10.0857270  51.8006460  41.0875510
   8.4243740  47.6293990  43.0952850   8.3552020  46.6883930  42.9341980
   9.1863600  47.7195400  43.6675420   9.4548910  40.4364370  43.3221780
   9.8313730  39.5636250  43.2095450   9.3568420  40.7723070  42.4312220
   3.5853920  38.8090000  38.7839220   3.6920670  39.7093730  39.0907980
   2.6746280  38.7607970  38.4933870  13.2373030  37.9314810  40.2550120
  14.0582650  37.4411380  40.2975600  13.2707110  38.5212470  41.0081960
   5.4261650  41.7776370  43.1164400   5.9339870  42.2757340  43.7569420
   5.9574890  41.0011570  42.9403760   3.7097750  36.4174930  47.3827820
   3.7116190  36.9347320  46.5773720   2.8802060  35.9405110  47.3597750
  10.0968840  46.5294240  38.8817720   9.4786110  46.9943690  38.3180440
  10.6092090  47.2221720  39.2987230   4.9600600  46.0570110  45.5601320
   4.6269980  46.6839030  46.2022390   5.1367280  46.5831990  44.7802990
  13.4734510  39.8715190  43.0277660  12.7690080  40.1600080  43.6080770
  13.8346670  40.6815300  42.6677220   3.3913080  38.1284890  45.3898270
   3.7329890  38.9726940  45.0952140   2.4528890  38.2768630  45.5063610
   4.1719700  48.0250910  47.3750500   4.7893700  48.7001990  47.0934950
   3.3112820  48.4338890  47.2838000  15.0897290  49.4890320  45.2905140
  14.4060810  50.1589430  45.2821810  15.6291580  49.6870970  44.5250000
  16.5421430  39.3169980  43.4186870  15.5946340  39.3508960  43.5502300
  16.8671420  40.1308930  43.8036230   7.0740970  35.6167160  41.7142860
   7.3815950  35.0614050  40.9978360   6.1441670  35.7511620  41.5315850
  12.6256030  51.3334450  44.0050320  12.6383190  50.9296740  43.1372580
  12.0731250  52.1081740  43.9011750  13.9201450  48.0550670  39.0940490
  13.8097780  47.1125000  39.2189910  13.9169700  48.4166310  39.9803250
  12.0241470  46.2364290  45.3332930  12.4410260  46.0224400  44.4986390
  12.7481290  46.4937080  45.9041550   9.4621730  43.6815990  38.4502980
   8.5351010  43.6153370  38.6791450   9.6146550  44.6196120  38.3358220
   9.4490810  39.9532990  35.4470140   8.5094480  40.1146950  35.5322600
   9.7674070  40.6718670  34.9006130  15.9703570  44.6351510  45.4249170
  15.1422200  44.7044600  44.9499300  16.5654050  45.2205820  44.9565000
   5.0678370  44.2080730  41.2322710   4.6635370  43.4957980  40.7368610
   5.1541490  43.8633970  42.1210750   5.5360070  47.8948290  43.3961920
   5.2388360  47.2893760  42.7169700   6.4859890  47.9325600  43.2851280
   3.7806990  40.9823940  45.0121750   4.3321580  41.0919280  44.2375000
   4.2950500  41.3561540  45.7276980  13.6245680  51.4680160  47.0585020
  13.1476240  52.2752350  46.8657630  12.9407470  50.8158490  47.2111230
   4.6278500  47.6329980  50.0469720   3.7307030  47.8569950  50.2943120
   4.6531370  47.7564920  49.0981120   3.4549720  44.5043300  48.6227090
   3.3157490  45.3766100  48.9914490   2.5731080  44.1616110  48.4775030
   9.7779100  49.4219170  39.9292220  10.2175010  50.1643500  39.5147610
   9.7165990  49.6645740  40.8531180   5.2530070  50.4465000  50.8312240
   5.2245500  50.8507950  49.9640670   5.0895040  49.5175360  50.6683840
   1.7683000  43.1025710  38.7329360   1.6480600  43.8287800  38.1210630
   1.4583890  42.3328620  38.2557270  17.2044890  51.2292100  52.1276410
  17.6804610  51.7074990  52.8065490  17.8252050  51.1609590  51.4021910
  16.6078140  48.4204950  49.2876420  16.7341200  48.1816830  48.3693600
  16.6499520  47.5889490  49.7598500  10.4694880  52.1232950  47.8571230
  10.9839550  52.0340960  48.6593660   9.6263960  52.4692650  48.1499140
  12.4449280  52.4088290  37.2855230  12.2850420  52.1191230  38.1837060
  12.2795990  51.6328420  36.7500460   4.9237660  52.1886820  39.0626850
   4.7480140  51.2722360  38.8494650   4.0693400  52.5474110  39.3024650
  12.1475410  49.9175850  35.8453230  11.4540570  49.9153140  35.1855510
  12.8898270  49.4935170  35.4147400  11.7125340  51.5438560  39.9201720
  12.1682290  50.7627940  40.2340340  12.0517860  52.2545380  40.4642900
   4.2346660  36.4460780  42.1153030   3.7914810  37.2270320  41.7837550
   4.7931650  36.7690670  42.8223970   8.5216470  39.3129300  47.7188350
   8.0595840  39.5212320  48.5308290   8.1194580  38.4988650  47.4159020
   7.3505480  36.0671480  36.9958860   6.7259660  36.0631350  37.7212170
   7.2635600  35.2002440  36.5994830   6.2722560  36.9908110  43.9742630
   6.5694890  37.8970940  43.8934650   6.8208120  36.5026890  43.3602200
   4.0260880  41.5694350  39.8434280   3.8001800  41.3531520  40.7480900
   3.2453410  42.0022810  39.4980250  11.2558640  41.5757720  38.4424930
  10.6567530  42.2993520  38.2588550  11.8038250  41.5134500  37.6601380
   6.4660090  42.4679930  50.5094550   6.3703690  41.5274660  50.3594950
   7.3092070  42.6895000  50.1142620   9.8623510  40.2121260  40.4728210
  10.2553080  40.5293460  39.6596900  10.2240360  39.3333140  40.5872730
   8.1715680  38.9628570  51.7325070   7.4814000  38.7700770  52.3671160
   8.9147980  39.2463210  52.2649370  10.4478650  42.8027010  44.5678990
   9.7159770  43.3113820  44.9169090  10.0502990  41.9856990  44.2667770
   6.8856040  39.4781210  42.9731480   6.8892100  39.0371160  42.1236020
   7.7807160  39.7998540  43.0803300   2.7358420  39.3607700  41.9325690
   2.3958470  39.8382930  42.6892740   1.9735740  38.9072820  41.5726790
   6.9476190  40.4793290  35.9638240   7.0689010  40.4379770  36.9124060
   6.5624700  41.3417440  35.8084970  10.9104560  38.2560690  43.9801930
  10.9277300  38.7069340  44.8243780  10.6620140  37.3566330  44.1935370
   5.9597690  42.7894430  35.3621540   5.3914590  42.3412680  34.7357450
   6.6686690  43.1487210  34.8286690   7.1864010  43.5382990  44.7196890
   7.5534140  43.0641560  45.4658230   6.9969070  44.4124560  45.0605230
   4.9763380  42.5791630  47.0381100   4.6720450  43.4583610  47.2631460
   5.9309840  42.6391420  47.0738540   3.5045170  46.7852620  37.6347950
   2.7307430  46.2450240  37.4746670   4.2339800  46.2659230  37.2965710
  14.2633150  45.7817980  43.4274340  14.9832270  46.2773270  43.0370450
  14.0614970  45.1035870  42.7828210   9.7243090  37.1755940  37.5703730
   8.9107700  36.6769110  37.4949040   9.5305040  38.0154190  37.1540080
   9.6451950  45.8527040  49.3143340   9.5789260  44.9322710  49.0600930
   9.0157090  45.9502480  50.0287980   3.5482570  46.4533000  41.2726760
   4.0661240  45.6501260  41.2183650   3.0966590  46.3912140  42.1143590
   8.4352070  47.7199280  36.5454060   8.7767770  48.4641510  36.0497380
   7.6064780  48.0330400  36.9078890   4.2340230  43.8778610  51.0692010
   3.9340370  44.0235790  50.1719830   5.0051470  43.3183900  50.9765400
   9.5768680  48.6747610  49.0647140   9.5913220  47.7428570  48.8466050
   8.8693780  48.7607370  49.7036910  15.7879890  45.3154950  48.4115720
  15.0628080  45.9083730  48.2145110  16.3155350  45.3078490  47.6129090
  15.7393000  49.7129690  38.0627880  15.0969160  49.0585310  38.3371600
  15.3523660  50.1184780  37.2868550  11.3179480  47.0415120  41.9099570
  11.6703300  46.4443250  41.2500940  10.4341810  46.7159350  42.0807820
   7.4042760  47.8012810  39.3169980   8.0913890  48.3482020  39.6977570
   6.6175180  48.3453540  39.3519590   6.7069970  44.8058840  38.9295340
   7.1632750  45.6164090  39.1555530   6.3558180  44.4881980  39.7613830
   9.0102580  50.3165180  46.1587640   9.6544800  50.5224560  46.8361060
   9.3732020  49.5553580  45.7058490   2.6081750  35.1496490  39.4017860
   2.4796380  35.1414390  40.3502780   1.7843770  35.4879580  39.0508870
  10.2834660  48.3197530  44.8765090  10.9256890  47.6190690  44.9897260
  10.8084010  49.0995970  44.6961980  14.1290380  48.6046150  34.6004230
  13.9027960  47.8876590  35.1928870  13.7386580  48.3558590  33.7625980
  12.0572280  49.1192430  48.0801150  12.3928520  49.7059120  48.7579070
  11.1372620  48.9885140  48.3098940   7.8860860  49.1683760  51.2489210
   7.5657730  48.4493000  51.7934900   7.2119220  49.8438830  51.3225270
   5.9275030  50.0144210  36.1922360   5.9185130  50.7473900  35.5766870
   5.0073390  49.7675790  36.2849320  11.1014460  39.4009920  46.6126010
  11.4695280  38.5805130  46.9405580  10.2412660  39.4611810  47.0281660
   8.9134630  50.0772450  34.8547550   9.0146610  49.8736440  33.9249530
   8.0136370  49.8230730  35.0595330   6.4360520  40.6352810  38.8371450
   5.7276670  41.1039150  39.2785060   6.7205000  39.9774820  39.4716640
   8.0616450  42.0549510  46.8363980   8.5601700  42.5295330  47.5015830
   8.2039400  41.1313030  47.0434010  10.4675950  37.3603470  40.2767240
  10.3443730  37.3789600  39.3276750  11.4160510  37.4082410  40.3965640
   7.5552740  52.5958770  39.5495220   7.8094240  52.5580160  38.6274590
   6.6065220  52.4692100  39.5423470   4.6395540  38.9437890  36.2122160
   5.4886070  39.3808040  36.1462350   4.2726810  39.2558150  37.0394220
  13.5605320  43.5150650  41.1253730  12.6195460  43.5300880  41.3001420
  13.8749390  42.7286610  41.5714030   3.5386960  45.1970250  34.6857690
   4.3050230  45.0851610  35.2483120   3.6161650  44.5008220  34.0334460
   2.2333720  42.6295320  35.3690580   2.3137310  41.6822830  35.4807980
   3.1253470  42.9602200  35.4751240  15.5630900  50.6859500  42.8007990
  15.6878320  51.5090670  43.2731800  16.4296460  50.4750230  42.4532140
   3.0348430  52.7790710  42.4725120   3.7710910  52.2306170  42.7433690
   3.4189350  53.6446720  42.3331110   2.0406710  51.9636780  51.6610700
   2.8419440  52.2848830  52.0746100   1.5258530  51.6032360  52.3830610
   6.1450740  51.9521020  34.2950690   6.9379350  52.2409850  33.8432480
   5.6255090  51.5213190  33.6163170  10.8771340  48.0716650  51.6086110
  10.2709500  48.0948250  50.8681860  10.5725450  47.3399690  52.1453360
  12.3071710  51.7996940  50.2195520  13.2593460  51.7154960  50.1695760
  12.1599930  52.4638650  50.8929310  15.1980910  51.1791150  35.7187430
  14.9122420  50.7656290  34.9041610  15.0000460  52.1078860  35.5987950
   6.6628140  47.1724430  34.1593040   6.5578780  46.5576780  34.8854420
   6.4952360  46.6490320  33.3756050   6.8142460  45.8581230  50.1382270
   6.0488130  46.4266230  50.0536940   6.9958420  45.5657440  49.2450500
   9.9030870  46.2344460  34.7635030   9.3540970  46.6813760  35.4077770
  10.5250130  45.7293710  35.2872700  13.9565810  47.5886560  50.6957290
  14.6975280  47.9262320  50.1924750  13.1938490  47.7578620  50.1427060
   1.7927600  42.5939830  51.4996820   1.8332940  42.2953700  52.4082050
   2.6473100  42.9947440  51.3404340   5.5705990  45.1935380  36.6600330
   5.9922410  45.0275250  37.5031720   5.6956830  44.3835610  36.1655470
   3.7333410  41.1731930  49.4671310   3.2029870  40.6822880  48.8394650
   4.4021480  41.6016130  48.9329240   8.0833630  44.2172990  33.9077430
   8.6039290  43.5022010  33.5418580   8.7302030  44.8558860  34.2077940
  12.6311470  45.6401390  49.2312500  13.0452490  45.7946470  50.0802920
  11.6962470  45.7656610  49.3938280   4.2205710  38.1394300  49.5468600
   4.1262580  37.5215050  48.8219470   3.6403100  38.8660590  49.3198510
   6.9867150  36.6967540  46.5795990   6.5384450  36.7191800  45.7341540
   6.3532350  36.2986560  47.1766290   7.3926700  45.5921870  47.2008430
   7.8114810  46.4354600  47.0284670   6.4735330  45.7293910  46.9715210
   9.7290600  43.3238050  48.5846270   9.8486810  42.7279190  49.3241110
  10.5884600  43.3607740  48.1647570  12.0678500  43.8775240  47.1608780
  11.5413720  44.4017860  46.5573920  12.4109840  44.5102630  47.7918510
   4.4664890  41.2668610  33.6058490   4.2653950  40.4035970  33.9671830
   4.2956940  41.1801970  32.6680090   5.2434120  51.8974880  48.3166160
   4.7055210  52.6220940  47.9974860   5.4968080  51.4205220  47.5263500
   6.4959370  39.8659400  49.8422090   7.0859060  39.5575250  50.5299910
   5.6779610  39.3939150  49.9981990   3.2647690  38.3669230  33.5936370
   3.5673590  38.3736660  32.6855520   4.0042280  38.0167090  34.0904030
   8.0996330  53.1326090  48.5752810   8.0255030  54.0361230  48.8825180
   7.1975170  52.8137990  48.5474880   6.4832620  37.3103850  34.5792570
   6.1354620  36.6327840  33.9995020   6.6845390  36.8493360  35.3935960
   8.6481660  52.2984600  36.1979170   9.5432450  52.6369570  36.2197930
   8.6799290  51.5764010  35.5703450   2.2877820  47.6711650  34.4266170
   2.7252690  48.2141320  35.0823750   2.7725550  46.8458600  34.4362510
   4.0985540  48.7909690  39.5388400   3.7981080  48.6674660  40.4392310
   3.9923030  47.9318280  39.1304130  15.6276010  50.8288270  48.9045370
  15.0278000  50.8880830  48.1609290  15.7569910  49.8893250  49.0342220
  16.8677460  48.5706090  34.2415080  16.0370420  48.6382740  34.7122310
  17.0449290  49.4610210  33.9381940  17.3293890  46.1703670  41.5891210
  17.7002720  45.3870990  41.1827180  17.9695820  46.8592770  41.4108510
  14.3127650  47.5540250  47.0021530  13.4987490  47.9837410  47.2647320
  14.7201850  48.1658660  46.3890580  15.5469390  41.7714420  42.1958470
  16.0706870  41.2777070  41.5648640  16.1328810  41.9064780  42.9406040
  14.3703700  52.3058850  40.5289800  14.9662770  51.9843420  39.8524220
  14.6281850  51.8330670  41.3203070   2.2766270  48.7376760  50.6780430
   2.2335900  48.3669670  51.5594890   2.4077280  49.6754330  50.8182250
   5.9772300  50.2936350  46.2790150   5.7363660  50.5610910  45.3920670
   6.9174940  50.4642080  46.3341010   8.1826720  36.7569040  50.0346660
   8.1215610  37.3490870  50.7842070   9.1227100  36.6495000  49.8896920
  10.8201280  36.4139100  49.6738950  11.4341690  36.7318390  49.0120030
  11.3650840  35.9287690  50.2934810  17.2376460  52.3130730  47.0800790
  16.7434740  52.7099600  46.3627920  16.6289750  51.6879940  47.4738070
   2.1154300  51.6839010  47.7978210   1.5214620  51.5523710  48.5368250
   2.1078140  50.8477150  47.3320310  11.5609320  34.9771240  46.0008240
  10.6869160  35.3106350  45.7981170  11.4520070  34.5044420  46.8260110
  14.9215910  52.9554150  44.3587530  14.4618880  53.7069960  43.9845550
  14.2928370  52.2360620  44.3002330   5.3511630  51.2642390  43.5335660
   5.8676650  50.6529750  43.0083920   6.0009010  51.7671170  44.0246670
   8.0907130  52.1550880  44.3604640   8.3784940  51.9005180  43.4837650
   8.6030350  51.6028240  44.9510210   9.3084140  35.8941080  44.9401150
   8.5255930  36.3686580  45.2197910   9.0147070  34.9895910  44.8314330
  13.8605210  36.5964180  42.9850240  14.3013300  36.5409280  42.1371840
  13.5912800  37.5122190  43.0560420   7.1938360  38.3127830  40.4517180
   6.3812870  37.9384720  40.1113060   7.6980000  37.5572910  40.7538370
  11.6963340  34.9770280  41.6900250  12.2992710  35.5490490  42.1648770
  10.9556330  35.5409720  41.4674150   3.0249700  36.7252610  36.0016840
   3.5542460  35.9382410  35.8724790   3.6578020  37.4043800  36.2352370
   5.2187540  36.4627750  39.0562230   4.5890280  35.7615060  39.2232360
   4.6792680  37.2231880  38.8395390   8.1579490  53.0766980  51.7272840
   9.0846800  52.8411250  51.7708800   8.1429920  53.9038980  51.2458870
  16.3924550  52.6192550  38.7247090  16.5676740  51.9330290  38.0808010
  15.6946120  53.1439600  38.3323760   5.3443100  35.7411730  51.4914720
   5.0627370  36.2445330  50.7275540   5.7262800  34.9433480  51.1256850
   4.2352200  53.0087390  36.2782400   4.9671020  52.7246670  35.7306290
   4.4945870  52.7700670  37.1681780   3.3966990  49.1252120  36.2828730
   2.7675870  49.5937220  36.8314560   3.5114820  48.2801340  36.7174920
  14.7257050  52.3036840  51.5513880  15.5182370  51.8086070  51.3439840
  15.0190200  52.9826980  52.1589490  10.8516710  43.1757780  22.4329930
  10.7710760  42.2612390  22.1621640  10.4381130  43.6724850  21.7269640
   8.9834750  44.9536800  24.3139200   8.2076850  44.4737240  24.6037770
   9.6347680  44.2742450  24.1395360   3.0000580  45.2656610  25.1914960
   2.1685460  45.0105320  25.5911470   3.6081560  45.3367380  25.9272880
  13.0042180  49.3596990  23.0938330  12.5423710  48.5884230  23.4225500
  13.8167730  49.3863060  23.5990780   2.9801840  49.2996700  25.3872980
   3.2829880  48.4094440  25.2083200   3.7245430  49.8566920  25.1595230
   9.2305490  51.6455000  22.7142320   8.6116930  52.1012500  22.1436760
  10.0857270  51.8006460  22.3132020   8.4243740  47.6293990  24.3209360
   8.3552020  46.6883930  24.1598490   9.1863600  47.7195400  24.8931930
   9.4548910  40.4364370  24.5478290   9.8313730  39.5636250  24.4351960
   9.3568420  40.7723070  23.6568730   3.5853920  38.8090000  20.0095730
   3.6920670  39.7093730  20.3164490   2.6746280  38.7607970  19.7190380
  13.2373030  37.9314810  21.4806630  14.0582650  37.4411380  21.5232110
  13.2707110  38.5212470  22.2338470   5.4261650  41.7776370  24.3420910
   5.9339870  42.2757340  24.9825930   5.9574890  41.0011570  24.1660270
  17.5272580  39.9481560  28.0450260  16.8224750  40.3363270  27.5265370
  17.7930500  40.6431850  28.6471190   3.7097750  36.4174930  28.6084330
   3.7116190  36.9347320  27.8030230   2.8802060  35.9405110  28.5854260
  10.0968840  46.5294240  20.1074230   9.4786110  46.9943690  19.5436950
  10.6092090  47.2221720  20.5243740   4.9600600  46.0570110  26.7857830
   4.6269980  46.6839030  27.4278900   5.1367280  46.5831990  26.0059500
  13.4734510  39.8715190  24.2534170  12.7690080  40.1600080  24.8337280
  13.8346670  40.6815300  23.8933730   3.3913080  38.1284890  26.6154780
   3.7329890  38.9726940  26.3208650   2.4528890  38.2768630  26.7320120
   4.1719700  48.0250910  28.6007010   4.7893700  48.7001990  28.3191460
   3.3112820  48.4338890  28.5094510  15.0897290  49.4890320  26.5161650
  14.4060810  50.1589430  26.5078320  15.6291580  49.6870970  25.7506510
  16.5421430  39.3169980  24.6443380  15.5946340  39.3508960  24.7758810
  16.8671420  40.1308930  25.0292740   7.0740970  35.6167160  22.9399370
   7.3815950  35.0614050  22.2234870   6.1441670  35.7511620  22.7572360
  12.6256030  51.3334450  25.2306830  12.6383190  50.9296740  24.3629090
  12.0731250  52.1081740  25.1268260  13.9201450  48.0550670  20.3197000
  13.8097780  47.1125000  20.4446420  13.9169700  48.4166310  21.2059760
  12.0241470  46.2364290  26.5589440  12.4410260  46.0224400  25.7242900
  12.7481290  46.4937080  27.1298060   9.4621730  43.6815990  19.6759490
   8.5351010  43.6153370  19.9047960   9.6146550  44.6196120  19.5614730
   9.4490810  39.9532990  16.6726650   8.5094480  40.1146950  16.7579110
   9.7674070  40.6718670  16.1262640  15.9703570  44.6351510  26.6505680
  15.1422200  44.7044600  26.1755810  16.5654050  45.2205820  26.1821510
  13.4919020  45.2436290  20.1794740  12.8731440  44.9055840  19.5321040
  13.4743470  44.5996050  20.8873930  12.9345580  41.4220830  27.5960550
  12.5216760  42.2474540  27.8500540  12.2021530  40.8365870  27.4036910
   5.0678370  44.2080730  22.4579220   4.6635370  43.4957980  21.9625120
   5.1541490  43.8633970  23.3467260   5.5360070  47.8948290  24.6218430
   5.2388360  47.2893760  23.9426210   6.4859890  47.9325600  24.5107790
   3.7806990  40.9823940  26.2378260   4.3321580  41.0919280  25.4631510
   4.2950500  41.3561540  26.9533490  13.6245680  51.4680160  28.2841530
  13.1476240  52.2752350  28.0914140  12.9407470  50.8158490  28.4367740
   4.6278500  47.6329980  31.2726230   3.7307030  47.8569950  31.5199630
   4.6531370  47.7564920  30.3237630  11.6683720  44.4823100  17.1867490
  12.1077000  43.6445530  17.0405310  12.3812140  45.1152500  17.2731630
   3.4549720  44.5043300  29.8483600   3.3157490  45.3766100  30.2171000
   2.5731080  44.1616110  29.7031540   9.7779100  49.4219170  21.1548730
  10.2175010  50.1643500  20.7404120   9.7165990  49.6645740  22.0787690
   5.2530070  50.4465000  32.0568750   5.2245500  50.8507950  31.1897180
   5.0895040  49.5175360  31.8940350  15.2500860  35.7365910  15.5008530
  14.9373520  35.8292740  16.4007600  16.0113330  36.3146940  15.4505960
   1.7683000  43.1025710  19.9585870   1.6480600  43.8287800  19.3467140
   1.4583890  42.3328620  19.4813780  17.2044890  51.2292100  33.3532920
  17.6804610  51.7074990  34.0322000  17.8252050  51.1609590  32.6278420
  16.6078140  48.4204950  30.5132930  16.7341200  48.1816830  29.5950110
  16.6499520  47.5889490  30.9855010  10.4694880  52.1232950  29.0827740
  10.9839550  52.0340960  29.8850170   9.6263960  52.4692650  29.3755650
  12.4449280  52.4088290  18.5111740  12.2850420  52.1191230  19.4093570
  12.2795990  51.6328420  17.9756970   4.9237660  52.1886820  20.2883360
   4.7480140  51.2722360  20.0751160   4.0693400  52.5474110  20.5281160
  12.1475410  49.9175850  17.0709740  11.4540570  49.9153140  16.4112020
  12.8898270  49.4935170  16.6403910  11.7125340  51.5438560  21.1458230
  12.1682290  50.7627940  21.4596850  12.0517860  52.2545380  21.6899410
   4.2346660  36.4460780  23.3409540   3.7914810  37.2270320  23.0094060
   4.7931650  36.7690670  24.0480480   8.5216470  39.3129300  28.9444860
   8.0595840  39.5212320  29.7564800   8.1194580  38.4988650  28.6415530
  13.5220980  40.5338250  30.0741520  12.6714570  40.2344000  30.3950590
  13.3622770  40.7780260  29.1625340  10.6170690  42.0340000  32.1740310
  10.9424100  41.2003750  31.8342540  11.4051020  42.5568520  32.3218640
   7.3505480  36.0671480  18.2215370   6.7259660  36.0631350  18.9468680
   7.2635600  35.2002440  17.8251340   6.2722560  36.9908110  25.1999140
   6.5694890  37.8970940  25.1191160   6.8208120  36.5026890  24.5858710
   4.0260880  41.5694350  21.0690790   3.8001800  41.3531520  21.9737410
   3.2453410  42.0022810  20.7236760  11.2558640  41.5757720  19.6681440
  10.6567530  42.2993520  19.4845060  11.8038250  41.5134500  18.8857890
   6.4660090  42.4679930  31.7351060   6.3703690  41.5274660  31.5851460
   7.3092070  42.6895000  31.3399130   9.8623510  40.2121260  21.6984720
  10.2553080  40.5293460  20.8853410  10.2240360  39.3333140  21.8129240
   8.1715680  38.9628570  32.9581580   7.4814000  38.7700770  33.5927670
   8.9147980  39.2463210  33.4905880  10.4478650  42.8027010  25.7935500
   9.7159770  43.3113820  26.1425600  10.0502990  41.9856990  25.4924280
   6.8856040  39.4781210  24.1987990   6.8892100  39.0371160  23.3492530
   7.7807160  39.7998540  24.3059810   2.7358420  39.3607700  23.1582200
   2.3958470  39.8382930  23.9149250   1.9735740  38.9072820  22.7983300
   6.9476190  40.4793290  17.1894750   7.0689010  40.4379770  18.1380570
   6.5624700  41.3417440  17.0341480  10.9104560  38.2560690  25.2058440
  10.9277300  38.7069340  26.0500290  10.6620140  37.3566330  25.4191880
   5.9597690  42.7894430  16.5878050   5.3914590  42.3412680  15.9613960
   6.6686690  43.1487210  16.0543200   7.1864010  43.5382990  25.9453400
   7.5534140  43.0641560  26.6914740   6.9969070  44.4124560  26.2861740
   4.9763380  42.5791630  28.2637610   4.6720450  43.4583610  28.4887970
   5.9309840  42.6391420  28.2995050   3.5045170  46.7852620  18.8604460
   2.7307430  46.2450240  18.7003180   4.2339800  46.2659230  18.5222220
  14.2633150  45.7817980  24.6530850  14.9832270  46.2773270  24.2626960
  14.0614970  45.1035870  24.0084720   9.7243090  37.1755940  18.7960240
   8.9107700  36.6769110  18.7205550   9.5305040  38.0154190  18.3796590
   9.6451950  45.8527040  30.5399850   9.5789260  44.9322710  30.2857440
   9.0157090  45.9502480  31.2544490  12.4391480  41.5475590  17.0922400
  13.3271100  41.8592820  16.9173740  12.4096570  40.6747840  16.7002980
   3.5482570  46.4533000  22.4983270   4.0661240  45.6501260  22.4440160
   3.0966590  46.3912140  23.3400100   8.4352070  47.7199280  17.7710570
   8.7767770  48.4641510  17.2753890   7.6064780  48.0330400  18.1335400
   4.2340230  43.8778610  32.2948520   3.9340370  44.0235790  31.3976340
   5.0051470  43.3183900  32.2021910   9.5768680  48.6747610  30.2903650
   9.5913220  47.7428570  30.0722560   8.8693780  48.7607370  30.9293420
  14.7105750  42.8587430  16.5602260  14.6269470  43.2901650  15.7098700
  15.4299940  43.3185780  16.9929080  15.7879890  45.3154950  29.6372230
  15.0628080  45.9083730  29.4401620  16.3155350  45.3078490  28.8385600
  15.7393000  49.7129690  19.2884390  15.0969160  49.0585310  19.5628110
  15.3523660  50.1184780  18.5125060  11.3179480  47.0415120  23.1356080
  11.6703300  46.4443250  22.4757450  10.4341810  46.7159350  23.3064330
   7.4042760  47.8012810  20.5426490   8.0913890  48.3482020  20.9234080
   6.6175180  48.3453540  20.5776100   6.7069970  44.8058840  20.1551850
   7.1632750  45.6164090  20.3812040   6.3558180  44.4881980  20.9870340
   9.0102580  50.3165180  27.3844150   9.6544800  50.5224560  28.0617570
   9.3732020  49.5553580  26.9315000   2.6081750  35.1496490  20.6274370
   2.4796380  35.1414390  21.5759290   1.7843770  35.4879580  20.2765380
  10.2834660  48.3197530  26.1021600  10.9256890  47.6190690  26.2153770
  10.8084010  49.0995970  25.9218490  14.1290380  48.6046150  15.8260740
  13.9027960  47.8876590  16.4185380  13.7386580  48.3558590  14.9882490
  12.0572280  49.1192430  29.3057660  12.3928520  49.7059120  29.9835580
  11.1372620  48.9885140  29.5355450  13.7106630  46.5218090  17.4874900
  13.4228330  46.9830780  18.2752780  14.5058800  46.0615860  17.7559120
   7.8860860  49.1683760  32.4745720   7.5657730  48.4493000  33.0191410
   7.2119220  49.8438830  32.5481780   5.9275030  50.0144210  17.4178870
   5.9185130  50.7473900  16.8023380   5.0073390  49.7675790  17.5105830
  11.1014460  39.4009920  27.8382520  11.4695280  38.5805130  28.1662090
  10.2412660  39.4611810  28.2538170  14.4676490  38.3566860  18.6470080
  13.8389650  38.4612530  17.9328310  13.9728410  38.5763640  19.4363960
   8.9134630  50.0772450  16.0804060   9.0146610  49.8736440  15.1506040
   8.0136370  49.8230730  16.2851840   6.4360520  40.6352810  20.0627960
   5.7276670  41.1039150  20.5041570   6.7205000  39.9774820  20.6973150
   8.0616450  42.0549510  28.0620490   8.5601700  42.5295330  28.7272340
   8.2039400  41.1313030  28.2690520  10.4675950  37.3603470  21.5023750
  10.3443730  37.3789600  20.5533260  11.4160510  37.4082410  21.6222150
   7.5552740  52.5958770  20.7751730   7.8094240  52.5580160  19.8531100
   6.6065220  52.4692100  20.7679980   4.6395540  38.9437890  17.4378670
   5.4886070  39.3808040  17.3718860   4.2726810  39.2558150  18.2650730
  15.2683310  38.2717470  28.9048880  14.7656910  39.0122870  29.2442690
  16.0839970  38.6601470  28.5885670  13.5605320  43.5150650  22.3510240
  12.6195460  43.5300880  22.5257930  13.8749390  42.7286610  22.7970540
   3.5386960  45.1970250  15.9114200   4.3050230  45.0851610  16.4739630
   3.6161650  44.5008220  15.2590970   2.2333720  42.6295320  16.5947090
   2.3137310  41.6822830  16.7064490   3.1253470  42.9602200  16.7007750
  15.5630900  50.6859500  24.0264500  15.6878320  51.5090670  24.4988310
  16.4296460  50.4750230  23.6788650   3.0348430  52.7790710  23.6981630
   3.7710910  52.2306170  23.9690200   3.4189350  53.6446720  23.5587620
   2.0406710  51.9636780  32.8867210   2.8419440  52.2848830  33.3002610
   1.5258530  51.6032360  33.6087120   6.1450740  51.9521020  15.5207200
   6.9379350  52.2409850  15.0688990   5.6255090  51.5213190  14.8419680
  10.8771340  48.0716650  32.8342620  10.2709500  48.0948250  32.0938370
  10.5725450  47.3399690  33.3709870  12.3071710  51.7996940  31.4452030
  13.2593460  51.7154960  31.3952270  12.1599930  52.4638650  32.1185820
  15.1980910  51.1791150  16.9443940  14.9122420  50.7656290  16.1298120
  15.0000460  52.1078860  16.8244460   6.6628140  47.1724430  15.3849550
   6.5578780  46.5576780  16.1110930   6.4952360  46.6490320  14.6012560
   6.8142460  45.8581230  31.3638780   6.0488130  46.4266230  31.2793450
   6.9958420  45.5657440  30.4707010   9.9030870  46.2344460  15.9891540
   9.3540970  46.6813760  16.6334280  10.5250130  45.7293710  16.5129210
  13.9565810  47.5886560  31.9213800  14.6975280  47.9262320  31.4181260
  13.1938490  47.7578620  31.3683570   1.7927600  42.5939830  32.7253330
   1.8332940  42.2953700  33.6338560   2.6473100  42.9947440  32.5660850
   5.5705990  45.1935380  17.8856840   5.9922410  45.0275250  18.7288230
   5.6956830  44.3835610  17.3911980   3.7333410  41.1731930  30.6927820
   3.2029870  40.6822880  30.0651160   4.4021480  41.6016130  30.1585750
   8.0833630  44.2172990  15.1333940   8.6039290  43.5022010  14.7675090
   8.7302030  44.8558860  15.4334450  12.6311470  45.6401390  30.4569010
  13.0452490  45.7946470  31.3059430  11.6962470  45.7656610  30.6194790
   4.2205710  38.1394300  30.7725110   4.1262580  37.5215050  30.0475980
   3.6403100  38.8660590  30.5455020   6.9867150  36.6967540  27.8052500
   6.5384450  36.7191800  26.9598050   6.3532350  36.2986560  28.4022800
   7.3926700  45.5921870  28.4264940   7.8114810  46.4354600  28.2541180
   6.4735330  45.7293910  28.1971720   9.7290600  43.3238050  29.8102780
   9.8486810  42.7279190  30.5497620  10.5884600  43.3607740  29.3904080
  12.0678500  43.8775240  28.3865290  11.5413720  44.4017860  27.7830430
  12.4109840  44.5102630  29.0175020   4.4664890  41.2668610  14.8315000
   4.2653950  40.4035970  15.1928340   4.2956940  41.1801970  13.8936600
   5.2434120  51.8974880  29.5422670   4.7055210  52.6220940  29.2231370
   5.4968080  51.4205220  28.7520010   6.4959370  39.8659400  31.0678600
   7.0859060  39.5575250  31.7556420   5.6779610  39.3939150  31.2238500
  11.3152800  39.4825210  31.3011620  10.6268320  38.8206750  31.2361610
  12.0358820  39.0363480  31.7460080  11.9453200  36.0776840  17.3601880
  12.2255490  35.2344740  17.7161300  11.1718930  36.3099950  17.8740630
   3.2647690  38.3669230  14.8192880   3.5673590  38.3736660  13.9112030
   4.0042280  38.0167090  15.3160540   8.0996330  53.1326090  29.8009320
   8.0255030  54.0361230  30.1081690   7.1975170  52.8137990  29.7731390
   6.4832620  37.3103850  15.8049080   6.1354620  36.6327840  15.2251530
   6.6845390  36.8493360  16.6192470   8.6481660  52.2984600  17.4235680
   9.5432450  52.6369570  17.4454440   8.6799290  51.5764010  16.7959960
   2.2877820  47.6711650  15.6522680   2.7252690  48.2141320  16.3080260
   2.7725550  46.8458600  15.6619020   4.0985540  48.7909690  20.7644910
   3.7981080  48.6674660  21.6648820   3.9923030  47.9318280  20.3560640
  15.6276010  50.8288270  30.1301880  15.0278000  50.8880830  29.3865800
  15.7569910  49.8893250  30.2598730  16.8677460  48.5706090  15.4671590
  16.0370420  48.6382740  15.9378820  17.0449290  49.4610210  15.1638450
  16.3233920  45.3153570  17.9705790  17.0852830  45.8850220  18.0765480
  16.3388290  44.7480770  18.7414100  17.3293890  46.1703670  22.8147720
  17.7002720  45.3870990  22.4083690  17.9695820  46.8592770  22.6365020
  14.3127650  47.5540250  28.2278040  13.4987490  47.9837410  28.4903830
  14.7201850  48.1658660  27.6147090  16.3753090  45.6087940  15.1278310
  16.6501930  46.5166820  14.9997530  16.1863830  45.5450470  16.0640300
  12.7728700  38.6332790  16.4231940  13.1913580  38.4463770  15.5828600
  12.4664760  37.7811840  16.7334870  16.2718430  43.5456930  20.1207740
  15.8962030  42.7784860  19.6889030  15.5421550  43.9279630  20.6082670
  15.6618050  42.6928450  29.7547260  15.4304140  42.4641200  28.8545210
  15.9222600  43.6128000  29.7092150  15.5469390  41.7714420  23.4214980
  16.0706870  41.2777070  22.7905150  16.1328810  41.9064780  24.1662550
  15.7259110  41.8554290  26.9434530  14.7761820  41.8217830  27.0579520
  15.9072120  42.7654400  26.7084300  15.0369360  41.0287770  19.3607390
  15.5328480  40.7958640  20.1456270  14.8385430  40.1899610  18.9445030
  16.4656520  39.6648720  21.8945070  16.3555800  39.5104760  22.8327340
  17.2264110  39.1369660  21.6520480  14.8122240  35.6042850  28.3528070
  15.4494460  36.2176990  28.7187260  14.9597130  35.6403510  27.4077300
  17.3546790  37.4956640  15.1351210  18.2796100  37.3637820  14.9269500
  17.3322580  37.5749460  16.0887660  17.4285280  38.2667300  17.7607920
  16.6336780  38.2012420  18.2900830  17.6328560  39.2017940  17.7493270
  14.3703700  52.3058850  21.7546310  14.9662770  51.9843420  21.0780730
  14.6281850  51.8330670  22.5459580   2.2766270  48.7376760  31.9036940
   2.2335900  48.3669670  32.7851400   2.4077280  49.6754330  32.0438760
   5.9772300  50.2936350  27.5046660   5.7363660  50.5610910  26.6177180
   6.9174940  50.4642080  27.5597520   8.1826720  36.7569040  31.2603170
   8.1215610  37.3490870  32.0098580   9.1227100  36.6495000  31.1153430
  10.8201280  36.4139100  30.8995460  11.4341690  36.7318390  30.2376540
  11.3650840  35.9287690  31.5191320  17.2376460  52.3130730  28.3057300
  16.7434740  52.7099600  27.5884430  16.6289750  51.6879940  28.6994580
   2.1154300  51.6839010  29.0234720   1.5214620  51.5523710  29.7624760
   2.1078140  50.8477150  28.5576820  11.5609320  34.9771240  27.2264750
  10.6869160  35.3106350  27.0237680  11.4520070  34.5044420  28.0516620
  12.4681300  37.1842110  28.6106470  12.1394660  36.3693870  28.2308200
  13.4163600  37.1411920  28.4872160  14.9215910  52.9554150  25.5844040
  14.4618880  53.7069960  25.2102060  14.2928370  52.2360620  25.5258840
   5.3511630  51.2642390  24.7592170   5.8676650  50.6529750  24.2340430
   6.0009010  51.7671170  25.2503180   8.0907130  52.1550880  25.5861150
   8.3784940  51.9005180  24.7094160   8.6030350  51.6028240  26.1766720
   9.3084140  35.8941080  26.1657660   8.5255930  36.3686580  26.4454420
   9.0147070  34.9895910  26.0570840  13.8605210  36.5964180  24.2106750
  14.3013300  36.5409280  23.3628350  13.5912800  37.5122190  24.2816930
  15.7243780  36.2279420  22.2215570  15.6632180  35.2840640  22.0746590
  16.5035810  36.3359510  22.7669030   7.1938360  38.3127830  21.6773690
   6.3812870  37.9384720  21.3369570   7.6980000  37.5572910  21.9794880
  11.6963340  34.9770280  22.9156760  12.2992710  35.5490490  23.3905280
  10.9556330  35.5409720  22.6930660  14.8397940  35.3791840  18.1897040
  15.0348570  36.2775290  18.4564470  14.0527810  35.1478920  18.6829990
   3.0249700  36.7252610  17.2273350   3.5542460  35.9382410  17.0981300
   3.6578020  37.4043800  17.4608880   5.2187540  36.4627750  20.2818740
   4.5890280  35.7615060  20.4488870   4.6792680  37.2231880  20.0651900
   8.1579490  53.0766980  32.9529350   9.0846800  52.8411250  32.9965310
   8.1429920  53.9038980  32.4715380  16.3924550  52.6192550  19.9503600
  16.5676740  51.9330290  19.3064520  15.6946120  53.1439600  19.5580270
   5.3443100  35.7411730  32.7171230   5.0627370  36.2445330  31.9532050
   5.7262800  34.9433480  32.3513360   4.2352200  53.0087390  17.5038910
   4.9671020  52.7246670  16.9562800   4.4945870  52.7700670  18.3938290
   3.3966990  49.1252120  17.5085240   2.7675870  49.5937220  18.0571070
   3.5114820  48.2801340  17.9431430  14.7257050  52.3036840  32.7770390
  15.5182370  51.8086070  32.5696350  15.0190200  52.9826980  33.3846000
  10.8516710  43.1757780   3.6586440  10.7710760  42.2612390   3.3878150
  10.4381130  43.6724850   2.9526150   8.9834750  44.9536800   5.5395710
   8.2076850  44.4737240   5.8294280   9.6347680  44.2742450   5.3651870
   3.0000580  45.2656610   6.4171470   2.1685460  45.0105320   6.8167980
   3.6081560  45.3367380   7.1529390  13.0042180  49.3596990   4.3194840
  12.5423710  48.5884230   4.6482010  13.8167730  49.3863060   4.8247290
   2.9801840  49.2996700   6.6129490   3.2829880  48.4094440   6.4339710
   3.7245430  49.8566920   6.3851740   9.2305490  51.6455000   3.9398830
   8.6116930  52.1012500   3.3693270  10.0857270  51.8006460   3.5388530
   8.4243740  47.6293990   5.5465870   8.3552020  46.6883930   5.3855000
   9.1863600  47.7195400   6.1188440   9.4548910  40.4364370   5.7734800
   9.8313730  39.5636250   5.6608470   9.3568420  40.7723070   4.8825240
  13.2373030  37.9314810   2.7063140  14.0582650  37.4411380   2.7488620
  13.2707110  38.5212470   3.4594980   5.4261650  41.7776370   5.5677420
   5.9339870  42.2757340   6.2082440   5.9574890  41.0011570   5.3916780
  17.5272580  39.9481560   9.2706770  16.8224750  40.3363270   8.7521880
  17.7930500  40.6431850   9.8727700   3.7097750  36.4174930   9.8340840
   3.7116190  36.9347320   9.0286740   2.8802060  35.9405110   9.8110770
   4.9600600  46.0570110   8.0114340   4.6269980  46.6839030   8.6535410
   5.1367280  46.5831990   7.2316010  13.4734510  39.8715190   5.4790680
  12.7690080  40.1600080   6.0593790  13.8346670  40.6815300   5.1190240
   3.3913080  38.1284890   7.8411290   3.7329890  38.9726940   7.5465160
   2.4528890  38.2768630   7.9576630   4.1719700  48.0250910   9.8263520
   4.7893700  48.7001990   9.5447970   3.3112820  48.4338890   9.7351020
  15.0897290  49.4890320   7.7418160  14.4060810  50.1589430   7.7334830
  15.6291580  49.6870970   6.9763020  16.5421430  39.3169980   5.8699890
  15.5946340  39.3508960   6.0015320  16.8671420  40.1308930   6.2549250
   7.0740970  35.6167160   4.1655880   7.3815950  35.0614050   3.4491380
   6.1441670  35.7511620   3.9828870  12.6256030  51.3334450   6.4563340
  12.6383190  50.9296740   5.5885600  12.0731250  52.1081740   6.3524770
  12.0241470  46.2364290   7.7845950  12.4410260  46.0224400   6.9499410
  12.7481290  46.4937080   8.3554570  15.9703570  44.6351510   7.8762190
  15.1422200  44.7044600   7.4012320  16.5654050  45.2205820   7.4078020
  12.9345580  41.4220830   8.8217060  12.5216760  42.2474540   9.0757050
  12.2021530  40.8365870   8.6293420   5.0678370  44.2080730   3.6835730
   4.6635370  43.4957980   3.1881630   5.1541490  43.8633970   4.5723770
   5.5360070  47.8948290   5.8474940   5.2388360  47.2893760   5.1682720
   6.4859890  47.9325600   5.7364300   3.7806990  40.9823940   7.4634770
   4.3321580  41.0919280   6.6888020   4.2950500  41.3561540   8.1790000
  13.6245680  51.4680160   9.5098040  13.1476240  52.2752350   9.3170650
  12.9407470  50.8158490   9.6624250   4.6278500  47.6329980  12.4982740
   3.7307030  47.8569950  12.7456140   4.6531370  47.7564920  11.5494140
   3.4549720  44.5043300  11.0740110   3.3157490  45.3766100  11.4427510
   2.5731080  44.1616110  10.9288050   9.7779100  49.4219170   2.3805240
  10.2175010  50.1643500   1.9660630   9.7165990  49.6645740   3.3044200
   5.2530070  50.4465000  13.2825260   5.2245500  50.8507950  12.4153690
   5.0895040  49.5175360  13.1196860  17.2044890  51.2292100  14.5789430
  17.6804610  51.7074990  15.2578510  17.8252050  51.1609590  13.8534930
  16.6078140  48.4204950  11.7389440  16.7341200  48.1816830  10.8206620
  16.6499520  47.5889490  12.2111520  10.4694880  52.1232950  10.3084250
  10.9839550  52.0340960  11.1106680   9.6263960  52.4692650  10.6012160
  11.7125340  51.5438560   2.3714740  12.1682290  50.7627940   2.6853360
  12.0517860  52.2545380   2.9155920  16.4602150  40.4737410  12.7039180
  15.8446420  40.9817080  12.1754640  16.1398570  39.5735740  12.6465120
   4.2346660  36.4460780   4.5666050   3.7914810  37.2270320   4.2350570
   4.7931650  36.7690670   5.2736990   8.5216470  39.3129300  10.1701370
   8.0595840  39.5212320  10.9821310   8.1194580  38.4988650   9.8672040
  13.5220980  40.5338250  11.2998030  12.6714570  40.2344000  11.6207100
  13.3622770  40.7780260  10.3881850  10.6170690  42.0340000  13.3996820
  10.9424100  41.2003750  13.0599050  11.4051020  42.5568520  13.5475150
   6.2722560  36.9908110   6.4255650   6.5694890  37.8970940   6.3447670
   6.8208120  36.5026890   5.8115220   4.0260880  41.5694350   2.2947300
   3.8001800  41.3531520   3.1993920   3.2453410  42.0022810   1.9493270
   6.4660090  42.4679930  12.9607570   6.3703690  41.5274660  12.8107970
   7.3092070  42.6895000  12.5655640   9.8623510  40.2121260   2.9241230
  10.2553080  40.5293460   2.1109920  10.2240360  39.3333140   3.0385750
   8.1715680  38.9628570  14.1838090   7.4814000  38.7700770  14.8184180
   8.9147980  39.2463210  14.7162390  10.4478650  42.8027010   7.0192010
   9.7159770  43.3113820   7.3682110  10.0502990  41.9856990   6.7180790
   6.8856040  39.4781210   5.4244500   6.8892100  39.0371160   4.5749040
   7.7807160  39.7998540   5.5316320   2.7358420  39.3607700   4.3838710
   2.3958470  39.8382930   5.1405760   1.9735740  38.9072820   4.0239810
  10.9104560  38.2560690   6.4314950  10.9277300  38.7069340   7.2756800
  10.6620140  37.3566330   6.6448390  14.3375310  35.6692870  12.2701330
  14.6621080  34.9382530  12.7959310  14.3731820  35.3506510  11.3682320
   7.1864010  43.5382990   7.1709910   7.5534140  43.0641560   7.9171250
   6.9969070  44.4124560   7.5118250   4.9763380  42.5791630   9.4894120
   4.6720450  43.4583610   9.7144480   5.9309840  42.6391420   9.5251560
  14.2633150  45.7817980   5.8787360  14.9832270  46.2773270   5.4883470
  14.0614970  45.1035870   5.2341230   9.6451950  45.8527040  11.7656360
   9.5789260  44.9322710  11.5113950   9.0157090  45.9502480  12.4801000
   3.5482570  46.4533000   3.7239780   4.0661240  45.6501260   3.6696670
   3.0966590  46.3912140   4.5656610   4.2340230  43.8778610  13.5205030
   3.9340370  44.0235790  12.6232850   5.0051470  43.3183900  13.4278420
   9.5768680  48.6747610  11.5160160   9.5913220  47.7428570  11.2979070
   8.8693780  48.7607370  12.1549930  15.7879890  45.3154950  10.8628740
  15.0628080  45.9083730  10.6658130  16.3155350  45.3078490  10.0642110
  11.3179480  47.0415120   4.3612590  11.6703300  46.4443250   3.7013960
  10.4341810  46.7159350   4.5320840   7.4042760  47.8012810   1.7683000
   8.0913890  48.3482020   2.1490590   6.6175180  48.3453540   1.8032610
   9.0102580  50.3165180   8.6100660   9.6544800  50.5224560   9.2874080
   9.3732020  49.5553580   8.1571510  10.2834660  48.3197530   7.3278110
  10.9256890  47.6190690   7.4410280  10.8084010  49.0995970   7.1475000
  12.0572280  49.1192430  10.5314170  12.3928520  49.7059120  11.2092090
  11.1372620  48.9885140  10.7611960   7.8860860  49.1683760  13.7002230
   7.5657730  48.4493000  14.2447920   7.2119220  49.8438830  13.7738290
  11.1014460  39.4009920   9.0639030  11.4695280  38.5805130   9.3918600
  10.2412660  39.4611810   9.4794680   8.0616450  42.0549510   9.2877000
   8.5601700  42.5295330   9.9528850   8.2039400  41.1313030   9.4947030
  10.4675950  37.3603470   2.7280260  10.3443730  37.3789600   1.7789770
  11.4160510  37.4082410   2.8478660  15.2683310  38.2717470  10.1305390
  14.7656910  39.0122870  10.4699200  16.0839970  38.6601470   9.8142180
  13.5605320  43.5150650   3.5766750  12.6195460  43.5300880   3.7514440
  13.8749390  42.7286610   4.0227050  15.5630900  50.6859500   5.2521010
  15.6878320  51.5090670   5.7244820  16.4296460  50.4750230   4.9045160
   3.0348430  52.7790710   4.9238140   3.7710910  52.2306170   5.1946710
   3.4189350  53.6446720   4.7844130   2.0406710  51.9636780  14.1123720
   2.8419440  52.2848830  14.5259120   1.5258530  51.6032360  14.8343630
  10.8771340  48.0716650  14.0599130  10.2709500  48.0948250  13.3194880
  10.5725450  47.3399690  14.5966380  12.3071710  51.7996940  12.6708540
  13.2593460  51.7154960  12.6208780  12.1599930  52.4638650  13.3442330
   6.8142460  45.8581230  12.5895290   6.0488130  46.4266230  12.5049960
   6.9958420  45.5657440  11.6963520  13.9565810  47.5886560  13.1470310
  14.6975280  47.9262320  12.6437770  13.1938490  47.7578620  12.5940080
   1.7927600  42.5939830  13.9509840   1.8332940  42.2953700  14.8595070
   2.6473100  42.9947440  13.7917360   3.7333410  41.1731930  11.9184330
   3.2029870  40.6822880  11.2907670   4.4021480  41.6016130  11.3842260
  12.6311470  45.6401390  11.6825520  13.0452490  45.7946470  12.5315940
  11.6962470  45.7656610  11.8451300  13.1033640  42.9797550  13.6864670
  13.6854410  42.2249870  13.5985150  13.2795410  43.5104990  12.9096150
   4.2205710  38.1394300  11.9981620   4.1262580  37.5215050  11.2732490
   3.6403100  38.8660590  11.7711530   6.9867150  36.6967540   9.0309010
   6.5384450  36.7191800   8.1854560   6.3532350  36.2986560   9.6279310
   7.3926700  45.5921870   9.6521450   7.8114810  46.4354600   9.4797690
   6.4735330  45.7293910   9.4228230   9.7290600  43.3238050  11.0359290
   9.8486810  42.7279190  11.7754130  10.5884600  43.3607740  10.6160590
  12.0678500  43.8775240   9.6121800  11.5413720  44.4017860   9.0086940
  12.4109840  44.5102630  10.2431530   5.2434120  51.8974880  10.7679180
   4.7055210  52.6220940  10.4487880   5.4968080  51.4205220   9.9776520
   6.4959370  39.8659400  12.2935110   7.0859060  39.5575250  12.9812930
   5.6779610  39.3939150  12.4495010  11.3152800  39.4825210  12.5268130
  10.6268320  38.8206750  12.4618120  12.0358820  39.0363480  12.9716590
   8.0996330  53.1326090  11.0265830   8.0255030  54.0361230  11.3338200
   7.1975170  52.8137990  10.9987900  15.6276010  50.8288270  11.3558390
  15.0278000  50.8880830  10.6122310  15.7569910  49.8893250  11.4855240
  17.3293890  46.1703670   4.0404230  17.7002720  45.3870990   3.6340200
  17.9695820  46.8592770   3.8621530  14.3127650  47.5540250   9.4534550
  13.4987490  47.9837410   9.7160340  14.7201850  48.1658660   8.8403600
  15.6618050  42.6928450  10.9803770  15.4304140  42.4641200  10.0801720
  15.9222600  43.6128000  10.9348660  14.1006120  37.9184880  13.7583470
  14.9776300  37.9268280  14.1417470  14.1126960  37.1815720  13.1475820
  15.5469390  41.7714420   4.6471490  16.0706870  41.2777070   4.0161660
  16.1328810  41.9064780   5.3919060  15.7259110  41.8554290   8.1691040
  14.7761820  41.8217830   8.2836030  15.9072120  42.7654400   7.9340810
  16.4656520  39.6648720   3.1201580  16.3555800  39.5104760   4.0583850
  17.2264110  39.1369660   2.8776990  14.8122240  35.6042850   9.5784580
  15.4494460  36.2176990   9.9443770  14.9597130  35.6403510   8.6333810
  14.3703700  52.3058850   2.9802820  14.9662770  51.9843420   2.3037240
  14.6281850  51.8330670   3.7716090   2.2766270  48.7376760  13.1293450
   2.2335900  48.3669670  14.0107910   2.4077280  49.6754330  13.2695270
   5.9772300  50.2936350   8.7303170   5.7363660  50.5610910   7.8433690
   6.9174940  50.4642080   8.7854030   8.1826720  36.7569040  12.4859680
   8.1215610  37.3490870  13.2355090   9.1227100  36.6495000  12.3409940
  10.8201280  36.4139100  12.1251970  11.4341690  36.7318390  11.4633050
  11.3650840  35.9287690  12.7447830  17.2376460  52.3130730   9.5313810
  16.7434740  52.7099600   8.8140940  16.6289750  51.6879940   9.9251090
   2.1154300  51.6839010  10.2491230   1.5214620  51.5523710  10.9881270
   2.1078140  50.8477150   9.7833330  11.5609320  34.9771240   8.4521260
  10.6869160  35.3106350   8.2494190  11.4520070  34.5044420   9.2773130
  12.4681300  37.1842110   9.8362980  12.1394660  36.3693870   9.4564710
  13.4163600  37.1411920   9.7128670  14.9215910  52.9554150   6.8100550
  14.4618880  53.7069960   6.4358570  14.2928370  52.2360620   6.7515350
   5.3511630  51.2642390   5.9848680   5.8676650  50.6529750   5.4596940
   6.0009010  51.7671170   6.4759690   8.0907130  52.1550880   6.8117660
   8.3784940  51.9005180   5.9350670   8.6030350  51.6028240   7.4023230
   9.3084140  35.8941080   7.3914170   8.5255930  36.3686580   7.6710930
   9.0147070  34.9895910   7.2827350  13.8605210  36.5964180   5.4363260
  14.3013300  36.5409280   4.5884860  13.5912800  37.5122190   5.5073440
  15.7243780  36.2279420   3.4472080  15.6632180  35.2840640   3.3003100
  16.5035810  36.3359510   3.9925540   7.1938360  38.3127830   2.9030200
   6.3812870  37.9384720   2.5626080   7.6980000  37.5572910   3.2051390
  11.6963340  34.9770280   4.1413270  12.2992710  35.5490490   4.6161790
  10.9556330  35.5409720   3.9187170   8.1579490  53.0766980  14.1785860
   9.0846800  52.8411250  14.2221820   8.1429920  53.9038980  13.6971890
   5.3443100  35.7411730  13.9427740   5.0627370  36.2445330  13.1788560
   5.7262800  34.9433480  13.5769870  11.9458560  35.1565310  14.5208210
  11.8324010  35.4759920  15.4159730  12.7628300  35.5577820  14.2245490
  14.7257050  52.3036840  14.0026900  15.5182370  51.8086070  13.7952860
  15.0190200  52.9826980  14.6102510  10.8516710  24.4014290  78.7560400
  10.7710760  23.4868900  78.4852110  10.4381130  24.8981360  78.0500110
   8.9834750  26.1793310  80.6369670   8.2076850  25.6993750  80.9268240
   9.6347680  25.4998960  80.4625830   3.0000580  26.4913120  81.5145430
   2.1685460  26.2361830  81.9141940   3.6081560  26.5623890  82.2503350
  13.0042180  30.5853500  79.4168800  12.5423710  29.8140740  79.7455970
  13.8167730  30.6119570  79.9221250   2.9801840  30.5253210  81.7103450
   3.2829880  29.6350950  81.5313670   3.7245430  31.0823430  81.4825700
   9.2305490  32.8711510  79.0372790   8.6116930  33.3269010  78.4667230
  10.0857270  33.0262970  78.6362490   8.4243740  28.8550500  80.6439830
   8.3552020  27.9140440  80.4828960   9.1863600  28.9451910  81.2162400
   9.4548910  21.6620880  80.8708760   9.8313730  20.7892760  80.7582430
   9.3568420  21.9979580  79.9799200   3.5853920  20.0346510  76.3326200
   3.6920670  20.9350240  76.6394960   2.6746280  19.9864480  76.0420850
  13.2373030  19.1571320  77.8037100  14.0582650  18.6667890  77.8462580
  13.2707110  19.7468980  78.5568940   5.4261650  23.0032880  80.6651380
   5.9339870  23.5013850  81.3056400   5.9574890  22.2268080  80.4890740
  10.0968840  27.7550750  76.4304700   9.4786110  28.2200200  75.8667420
  10.6092090  28.4478230  76.8474210   4.9600600  27.2826620  83.1088300
   4.6269980  27.9095540  83.7509370   5.1367280  27.8088500  82.3289970
  13.4734510  21.0971700  80.5764640  12.7690080  21.3856590  81.1567750
  13.8346670  21.9071810  80.2164200   3.3913080  19.3541400  82.9385250
   3.7329890  20.1983450  82.6439120   2.4528890  19.5025140  83.0550590
  15.0897290  30.7146830  82.8392120  14.4060810  31.3845940  82.8308790
  15.6291580  30.9127480  82.0736980  16.5421430  20.5426490  80.9673850
  15.5946340  20.5765470  81.0989280  16.8671420  21.3565440  81.3523210
   7.0740970  16.8423670  79.2629840   7.3815950  16.2870560  78.5465340
   6.1441670  16.9768130  79.0802830  12.6256030  32.5590960  81.5537300
  12.6383190  32.1553250  80.6859560  12.0731250  33.3338250  81.4498730
  13.9201450  29.2807180  76.6427470  13.8097780  28.3381510  76.7676890
  13.9169700  29.6422820  77.5290230  12.0241470  27.4620800  82.8819910
  12.4410260  27.2480910  82.0473370  12.7481290  27.7193590  83.4528530
   9.4621730  24.9072500  75.9989960   8.5351010  24.8409880  76.2278430
   9.6146550  25.8452630  75.8845200   9.4490810  21.1789500  72.9957120
   8.5094480  21.3403460  73.0809580   9.7674070  21.8975180  72.4493110
  15.9703570  25.8608020  82.9736150  15.1422200  25.9301110  82.4986280
  16.5654050  26.4462330  82.5051980  13.4919020  26.4692800  76.5025210
  12.8731440  26.1312350  75.8551510  13.4743470  25.8252560  77.2104400
   5.0678370  25.4337240  78.7809690   4.6635370  24.7214490  78.2855590
   5.1541490  25.0890480  79.6697730   5.5360070  29.1204800  80.9448900
   5.2388360  28.5150270  80.2656680   6.4859890  29.1582110  80.8338260
   3.7806990  22.2080450  82.5608730   4.3321580  22.3175790  81.7861980
   4.2950500  22.5818050  83.2763960  11.6683720  25.7079610  73.5097960
  12.1077000  24.8702040  73.3635780  12.3812140  26.3409010  73.5962100
   9.7779100  30.6475680  77.4779200  10.2175010  31.3900010  77.0634590
   9.7165990  30.8902250  78.4018160  15.2500860  16.9622420  71.8239000
  14.9373520  17.0549250  72.7238070  16.0113330  17.5403450  71.7736430
   1.7683000  24.3282220  76.2816340   1.6480600  25.0544310  75.6697610
   1.4583890  23.5585130  75.8044250  12.4449280  33.6344800  74.8342210
  12.2850420  33.3447740  75.7324040  12.2795990  32.8584930  74.2987440
   4.9237660  33.4143330  76.6113830   4.7480140  32.4978870  76.3981630
   4.0693400  33.7730620  76.8511630  12.1475410  31.1432360  73.3940210
  11.4540570  31.1409650  72.7342490  12.8898270  30.7191680  72.9634380
  11.7125340  32.7695070  77.4688700  12.1682290  31.9884450  77.7827320
  12.0517860  33.4801890  78.0129880   4.2346660  17.6717290  79.6640010
   3.7914810  18.4526830  79.3324530   4.7931650  17.9947180  80.3710950
   7.3505480  17.2927990  74.5445840   6.7259660  17.2887860  75.2699150
   7.2635600  16.4258950  74.1481810   6.2722560  18.2164620  81.5229610
   6.5694890  19.1227450  81.4421630   6.8208120  17.7283400  80.9089180
   4.0260880  22.7950860  77.3921260   3.8001800  22.5788030  78.2967880
   3.2453410  23.2279320  77.0467230  11.2558640  22.8014230  75.9911910
  10.6567530  23.5250030  75.8075530  11.8038250  22.7391010  75.2088360
   9.8623510  21.4377770  78.0215190  10.2553080  21.7549970  77.2083880
  10.2240360  20.5589650  78.1359710  10.4478650  24.0283520  82.1165970
   9.7159770  24.5370330  82.4656070  10.0502990  23.2113500  81.8154750
   6.8856040  20.7037720  80.5218460   6.8892100  20.2627670  79.6723000
   7.7807160  21.0255050  80.6290280   2.7358420  20.5864210  79.4812670
   2.3958470  21.0639440  80.2379720   1.9735740  20.1329330  79.1213770
   6.9476190  21.7049800  73.5125220   7.0689010  21.6636280  74.4611040
   6.5624700  22.5673950  73.3571950  10.9104560  19.4817200  81.5288910
  10.9277300  19.9325850  82.3730760  10.6620140  18.5822840  81.7422350
   5.9597690  24.0150940  72.9108520   5.3914590  23.5669190  72.2844430
   6.6686690  24.3743720  72.3773670   7.1864010  24.7639500  82.2683870
   7.5534140  24.2898070  83.0145210   6.9969070  25.6381070  82.6092210
   3.5045170  28.0109130  75.1834930   2.7307430  27.4706750  75.0233650
   4.2339800  27.4915740  74.8452690  14.2633150  27.0074490  80.9761320
  14.9832270  27.5029780  80.5857430  14.0614970  26.3292380  80.3315190
   9.7243090  18.4012450  75.1190710   8.9107700  17.9025620  75.0436020
   9.5305040  19.2410700  74.7027060  12.4391480  22.7732100  73.4152870
  13.3271100  23.0849330  73.2404210  12.4096570  21.9004350  73.0233450
   3.5482570  27.6789510  78.8213740   4.0661240  26.8757770  78.7670630
   3.0966590  27.6168650  79.6630570   8.4352070  28.9455790  74.0941040
   8.7767770  29.6898020  73.5984360   7.6064780  29.2586910  74.4565870
  14.7105750  24.0843940  72.8832730  14.6269470  24.5158160  72.0329170
  15.4299940  24.5442290  73.3159550  15.7393000  30.9386200  75.6114860
  15.0969160  30.2841820  75.8858580  15.3523660  31.3441290  74.8355530
  11.3179480  28.2671630  79.4586550  11.6703300  27.6699760  78.7987920
  10.4341810  27.9415860  79.6294800   7.4042760  29.0269320  76.8656960
   8.0913890  29.5738530  77.2464550   6.6175180  29.5710050  76.9006570
   6.7069970  26.0315350  76.4782320   7.1632750  26.8420600  76.7042510
   6.3558180  25.7138490  77.3100810   2.6081750  16.3753000  76.9504840
   2.4796380  16.3670900  77.8989760   1.7843770  16.7136090  76.5995850
  10.2834660  29.5454040  82.4252070  10.9256890  28.8447200  82.5384240
  10.8084010  30.3252480  82.2448960  14.1290380  29.8302660  72.1491210
  13.9027960  29.1133100  72.7415850  13.7386580  29.5815100  71.3112960
  13.7106630  27.7474600  73.8105370  13.4228330  28.2087290  74.5983250
  14.5058800  27.2872370  74.0789590   5.9275030  31.2400720  73.7409340
   5.9185130  31.9730410  73.1253850   5.0073390  30.9932300  73.8336300
  14.4676490  19.5823370  74.9700550  13.8389650  19.6869040  74.2558780
  13.9728410  19.8020150  75.7594430   8.9134630  31.3028960  72.4034530
   9.0146610  31.0992950  71.4736510   8.0136370  31.0487240  72.6082310
   6.4360520  21.8609320  76.3858430   5.7276670  22.3295660  76.8272040
   6.7205000  21.2031330  77.0203620  10.4675950  18.5859980  77.8254220
  10.3443730  18.6046110  76.8763730  11.4160510  18.6338920  77.9452620
   7.5552740  33.8215280  77.0982200   7.8094240  33.7836670  76.1761570
   6.6065220  33.6948610  77.0910450   4.6395540  20.1694400  73.7609140
   5.4886070  20.6064550  73.6949330   4.2726810  20.4814660  74.5881200
  13.5605320  24.7407160  78.6740710  12.6195460  24.7557390  78.8488400
  13.8749390  23.9543120  79.1201010   3.5386960  26.4226760  72.2344670
   4.3050230  26.3108120  72.7970100   3.6161650  25.7264730  71.5821440
   2.2333720  23.8551830  72.9177560   2.3137310  22.9079340  73.0294960
   3.1253470  24.1858710  73.0238220  15.5630900  31.9116010  80.3494970
  15.6878320  32.7347180  80.8218780  16.4296460  31.7006740  80.0019120
   3.0348430  34.0047220  80.0212100   3.7710910  33.4562680  80.2920670
   3.4189350  34.8703230  79.8818090   6.1450740  33.1777530  71.8437670
   6.9379350  33.4666360  71.3919460   5.6255090  32.7469700  71.1650150
  15.1980910  32.4047660  73.2674410  14.9122420  31.9912800  72.4528590
  15.0000460  33.3335370  73.1474930   6.6628140  28.3980940  71.7080020
   6.5578780  27.7833290  72.4341400   6.4952360  27.8746830  70.9243030
   9.9030870  27.4600970  72.3122010   9.3540970  27.9070270  72.9564750
  10.5250130  26.9550220  72.8359680   5.5705990  26.4191890  74.2087310
   5.9922410  26.2531760  75.0518700   5.6956830  25.6092120  73.7142450
   8.0833630  25.4429500  71.4564410   8.6039290  24.7278520  71.0905560
   8.7302030  26.0815370  71.7564920   4.4664890  22.4925120  71.1545470
   4.2653950  21.6292480  71.5158810   4.2956940  22.4058480  70.2167070
  11.9453200  17.3033350  73.6832350  12.2255490  16.4601250  74.0391770
  11.1718930  17.5356460  74.1971100   3.2647690  19.5925740  71.1423350
   3.5673590  19.5993170  70.2342500   4.0042280  19.2423600  71.6391010
   6.4832620  18.5360360  72.1279550   6.1354620  17.8584350  71.5482000
   6.6845390  18.0749870  72.9422940   8.6481660  33.5241110  73.7466150
   9.5432450  33.8626080  73.7684910   8.6799290  32.8020520  73.1190430
   2.2877820  28.8968160  71.9753150   2.7252690  29.4397830  72.6310730
   2.7725550  28.0715110  71.9849490   4.0985540  30.0166200  77.0875380
   3.7981080  29.8931170  77.9879290   3.9923030  29.1574790  76.6791110
  16.8677460  29.7962600  71.7902060  16.0370420  29.8639250  72.2609290
  17.0449290  30.6866720  71.4868920  16.3233920  26.5410080  74.2936260
  17.0852830  27.1106730  74.3995950  16.3388290  25.9737280  75.0644570
  17.3293890  27.3960180  79.1378190  17.7002720  26.6127500  78.7314160
  17.9695820  28.0849280  78.9595490  16.3753090  26.8344450  71.4508780
  16.6501930  27.7423330  71.3228000  16.1863830  26.7706980  72.3870770
  12.7728700  19.8589300  72.7462410  13.1913580  19.6720280  71.9059070
  12.4664760  19.0068350  73.0565340  16.2718430  24.7713440  76.4438210
  15.8962030  24.0041370  76.0119500  15.5421550  25.1536140  76.9313140
  15.5469390  22.9970930  79.7445450  16.0706870  22.5033580  79.1135620
  16.1328810  23.1321290  80.4893020  15.7259110  23.0810800  83.2665000
  14.7761820  23.0474340  83.3809990  15.9072120  23.9910910  83.0314770
  15.0369360  22.2544280  75.6837860  15.5328480  22.0215150  76.4686740
  14.8385430  21.4156120  75.2675500  16.4656520  20.8905230  78.2175540
  16.3555800  20.7361270  79.1557810  17.2264110  20.3626170  77.9750950
  17.3546790  18.7213150  71.4581680  18.2796100  18.5894330  71.2499970
  17.3322580  18.8005970  72.4118130  17.4285280  19.4923810  74.0838390
  16.6336780  19.4268930  74.6131300  17.6328560  20.4274450  74.0723740
  14.3703700  33.5315360  78.0776780  14.9662770  33.2099930  77.4011200
  14.6281850  33.0587180  78.8690050  14.9215910  34.1810660  81.9074510
  14.4618880  34.9326470  81.5332530  14.2928370  33.4617130  81.8489310
   5.3511630  32.4898900  81.0822640   5.8676650  31.8786260  80.5570900
   6.0009010  32.9927680  81.5733650   8.0907130  33.3807390  81.9091620
   8.3784940  33.1261690  81.0324630   8.6030350  32.8284750  82.4997190
   9.3084140  17.1197590  82.4888130   8.5255930  17.5943090  82.7684890
   9.0147070  16.2152420  82.3801310  13.8605210  17.8220690  80.5337220
  14.3013300  17.7665790  79.6858820  13.5912800  18.7378700  80.6047400
  15.7243780  17.4535930  78.5446040  15.6632180  16.5097150  78.3977060
  16.5035810  17.5616020  79.0899500   7.1938360  19.5384340  78.0004160
   6.3812870  19.1641230  77.6600040   7.6980000  18.7829420  78.3025350
  11.6963340  16.2026790  79.2387230  12.2992710  16.7747000  79.7135750
  10.9556330  16.7666230  79.0161130  14.8397940  16.6048350  74.5127510
  15.0348570  17.5031800  74.7794940  14.0527810  16.3735430  75.0060460
   3.0249700  17.9509120  73.5503820   3.5542460  17.1638920  73.4211770
   3.6578020  18.6300310  73.7839350   5.2187540  17.6884260  76.6049210
   4.5890280  16.9871570  76.7719340   4.6792680  18.4488390  76.3882370
  16.3924550  33.8449060  76.2734070  16.5676740  33.1586800  75.6294990
  15.6946120  34.3696110  75.8810740   4.2352200  34.2343900  73.8269380
   4.9671020  33.9503180  73.2793270   4.4945870  33.9957180  74.7168760
   3.3966990  30.3508630  73.8315710   2.7675870  30.8193730  74.3801540
   3.5114820  29.5057850  74.2661900  10.8516710  24.4014290  59.9816910
  10.7710760  23.4868900  59.7108620  10.4381130  24.8981360  59.2756620
   8.9834750  26.1793310  61.8626180   8.2076850  25.6993750  62.1524750
   9.6347680  25.4998960  61.6882340   3.0000580  26.4913120  62.7401940
   2.1685460  26.2361830  63.1398450   3.6081560  26.5623890  63.4759860
  13.0042180  30.5853500  60.6425310  12.5423710  29.8140740  60.9712480
  13.8167730  30.6119570  61.1477760   2.9801840  30.5253210  62.9359960
   3.2829880  29.6350950  62.7570180   3.7245430  31.0823430  62.7082210
   9.2305490  32.8711510  60.2629300   8.6116930  33.3269010  59.6923740
  10.0857270  33.0262970  59.8619000   8.4243740  28.8550500  61.8696340
   8.3552020  27.9140440  61.7085470   9.1863600  28.9451910  62.4418910
   9.4548910  21.6620880  62.0965270   9.8313730  20.7892760  61.9838940
   9.3568420  21.9979580  61.2055710   3.5853920  20.0346510  57.5582710
   3.6920670  20.9350240  57.8651470   2.6746280  19.9864480  57.2677360
  13.2373030  19.1571320  59.0293610  14.0582650  18.6667890  59.0719090
  13.2707110  19.7468980  59.7825450   5.4261650  23.0032880  61.8907890
   5.9339870  23.5013850  62.5312910   5.9574890  22.2268080  61.7147250
  17.5272580  21.1738070  65.5937240  16.8224750  21.5619780  65.0752350
  17.7930500  21.8688360  66.1958170   3.7097750  17.6431440  66.1571310
   3.7116190  18.1603830  65.3517210   2.8802060  17.1661620  66.1341240
  10.0968840  27.7550750  57.6561210   9.4786110  28.2200200  57.0923930
  10.6092090  28.4478230  58.0730720   4.9600600  27.2826620  64.3344810
   4.6269980  27.9095540  64.9765880   5.1367280  27.8088500  63.5546480
  13.4734510  21.0971700  61.8021150  12.7690080  21.3856590  62.3824260
  13.8346670  21.9071810  61.4420710   3.3913080  19.3541400  64.1641760
   3.7329890  20.1983450  63.8695630   2.4528890  19.5025140  64.2807100
   4.1719700  29.2507420  66.1493990   4.7893700  29.9258500  65.8678440
   3.3112820  29.6595400  66.0581490  15.0897290  30.7146830  64.0648630
  14.4060810  31.3845940  64.0565300  15.6291580  30.9127480  63.2993490
  16.5421430  20.5426490  62.1930360  15.5946340  20.5765470  62.3245790
  16.8671420  21.3565440  62.5779720   7.0740970  16.8423670  60.4886350
   7.3815950  16.2870560  59.7721850   6.1441670  16.9768130  60.3059340
  12.6256030  32.5590960  62.7793810  12.6383190  32.1553250  61.9116070
  12.0731250  33.3338250  62.6755240  13.9201450  29.2807180  57.8683980
  13.8097780  28.3381510  57.9933400  13.9169700  29.6422820  58.7546740
  12.0241470  27.4620800  64.1076420  12.4410260  27.2480910  63.2729880
  12.7481290  27.7193590  64.6785040   9.4621730  24.9072500  57.2246470
   8.5351010  24.8409880  57.4534940   9.6146550  25.8452630  57.1101710
   9.4490810  21.1789500  54.2213630   8.5094480  21.3403460  54.3066090
   9.7674070  21.8975180  53.6749620  15.9703570  25.8608020  64.1992660
  15.1422200  25.9301110  63.7242790  16.5654050  26.4462330  63.7308490
  13.4919020  26.4692800  57.7281720  12.8731440  26.1312350  57.0808020
  13.4743470  25.8252560  58.4360910  12.9345580  22.6477340  65.1447530
  12.5216760  23.4731050  65.3987520  12.2021530  22.0622380  64.9523890
   5.0678370  25.4337240  60.0066200   4.6635370  24.7214490  59.5112100
   5.1541490  25.0890480  60.8954240   5.5360070  29.1204800  62.1705410
   5.2388360  28.5150270  61.4913190   6.4859890  29.1582110  62.0594770
   3.7806990  22.2080450  63.7865240   4.3321580  22.3175790  63.0118490
   4.2950500  22.5818050  64.5020470  13.6245680  32.6936670  65.8328510
  13.1476240  33.5008860  65.6401120  12.9407470  32.0415000  65.9854720
   4.6278500  28.8586490  68.8213210   3.7307030  29.0826460  69.0686610
   4.6531370  28.9821430  67.8724610  11.6683720  25.7079610  54.7354470
  12.1077000  24.8702040  54.5892290  12.3812140  26.3409010  54.8218610
   3.4549720  25.7299810  67.3970580   3.3157490  26.6022610  67.7657980
   2.5731080  25.3872620  67.2518520   9.7779100  30.6475680  58.7035710
  10.2175010  31.3900010  58.2891100   9.7165990  30.8902250  59.6274670
   5.2530070  31.6721510  69.6055730   5.2245500  32.0764460  68.7384160
   5.0895040  30.7431870  69.4427330  15.2500860  16.9622420  53.0495510
  14.9373520  17.0549250  53.9494580  16.0113330  17.5403450  52.9992940
   1.7683000  24.3282220  57.5072850   1.6480600  25.0544310  56.8954120
   1.4583890  23.5585130  57.0300760  10.4694880  33.3489460  66.6314720
  10.9839550  33.2597470  67.4337150   9.6263960  33.6949160  66.9242630
   4.9237660  33.4143330  57.8370340   4.7480140  32.4978870  57.6238140
   4.0693400  33.7730620  58.0768140  12.1475410  31.1432360  54.6196720
  11.4540570  31.1409650  53.9599000  12.8898270  30.7191680  54.1890890
  11.7125340  32.7695070  58.6945210  12.1682290  31.9884450  59.0083830
  12.0517860  33.4801890  59.2386390  16.4602150  21.6993920  69.0269650
  15.8446420  22.2073590  68.4985110  16.1398570  20.7992250  68.9695590
   4.2346660  17.6717290  60.8896520   3.7914810  18.4526830  60.5581040
   4.7931650  17.9947180  61.5967460   8.5216470  20.5385810  66.4931840
   8.0595840  20.7468830  67.3051780   8.1194580  19.7245160  66.1902510
  13.5220980  21.7594760  67.6228500  12.6714570  21.4600510  67.9437570
  13.3622770  22.0036770  66.7112320  10.6170690  23.2596510  69.7227290
  10.9424100  22.4260260  69.3829520  11.4051020  23.7825030  69.8705620
   7.3505480  17.2927990  55.7702350   6.7259660  17.2887860  56.4955660
   7.2635600  16.4258950  55.3738320   6.2722560  18.2164620  62.7486120
   6.5694890  19.1227450  62.6678140   6.8208120  17.7283400  62.1345690
   4.0260880  22.7950860  58.6177770   3.8001800  22.5788030  59.5224390
   3.2453410  23.2279320  58.2723740  11.2558640  22.8014230  57.2168420
  10.6567530  23.5250030  57.0332040  11.8038250  22.7391010  56.4344870
   6.4660090  23.6936440  69.2838040   6.3703690  22.7531170  69.1338440
   7.3092070  23.9151510  68.8886110   9.8623510  21.4377770  59.2471700
  10.2553080  21.7549970  58.4340390  10.2240360  20.5589650  59.3616220
   8.1715680  20.1885080  70.5068560   7.4814000  19.9957280  71.1414650
   8.9147980  20.4719720  71.0392860  10.4478650  24.0283520  63.3422480
   9.7159770  24.5370330  63.6912580  10.0502990  23.2113500  63.0411260
   6.8856040  20.7037720  61.7474970   6.8892100  20.2627670  60.8979510
   7.7807160  21.0255050  61.8546790   2.7358420  20.5864210  60.7069180
   2.3958470  21.0639440  61.4636230   1.9735740  20.1329330  60.3470280
   6.9476190  21.7049800  54.7381730   7.0689010  21.6636280  55.6867550
   6.5624700  22.5673950  54.5828460  10.9104560  19.4817200  62.7545420
  10.9277300  19.9325850  63.5987270  10.6620140  18.5822840  62.9678860
   5.9597690  24.0150940  54.1365030   5.3914590  23.5669190  53.5100940
   6.6686690  24.3743720  53.6030180  14.3375310  16.8949380  68.5931800
  14.6621080  16.1639040  69.1189780  14.3731820  16.5763020  67.6912790
   7.1864010  24.7639500  63.4940380   7.5534140  24.2898070  64.2401720
   6.9969070  25.6381070  63.8348720   4.9763380  23.8048140  65.8124590
   4.6720450  24.6840120  66.0374950   5.9309840  23.8647930  65.8482030
   3.5045170  28.0109130  56.4091440   2.7307430  27.4706750  56.2490160
   4.2339800  27.4915740  56.0709200  14.2633150  27.0074490  62.2017830
  14.9832270  27.5029780  61.8113940  14.0614970  26.3292380  61.5571700
   9.7243090  18.4012450  56.3447220   8.9107700  17.9025620  56.2692530
   9.5305040  19.2410700  55.9283570   9.6451950  27.0783550  68.0886830
   9.5789260  26.1579220  67.8344420   9.0157090  27.1758990  68.8031470
  12.4391480  22.7732100  54.6409380  13.3271100  23.0849330  54.4660720
  12.4096570  21.9004350  54.2489960   3.5482570  27.6789510  60.0470250
   4.0661240  26.8757770  59.9927140   3.0966590  27.6168650  60.8887080
   8.4352070  28.9455790  55.3197550   8.7767770  29.6898020  54.8240870
   7.6064780  29.2586910  55.6822380   4.2340230  25.1035120  69.8435500
   3.9340370  25.2492300  68.9463320   5.0051470  24.5440410  69.7508890
   9.5768680  29.9004120  67.8390630   9.5913220  28.9685080  67.6209540
   8.8693780  29.9863880  68.4780400  15.7879890  26.5411460  67.1859210
  15.0628080  27.1340240  66.9888600  16.3155350  26.5335000  66.3872580
  11.3179480  28.2671630  60.6843060  11.6703300  27.6699760  60.0244430
  10.4341810  27.9415860  60.8551310   7.4042760  29.0269320  58.0913470
   8.0913890  29.5738530  58.4721060   6.6175180  29.5710050  58.1263080
   6.7069970  26.0315350  57.7038830   7.1632750  26.8420600  57.9299020
   6.3558180  25.7138490  58.5357320   9.0102580  31.5421690  64.9331130
   9.6544800  31.7481070  65.6104550   9.3732020  30.7810090  64.4801980
   2.6081750  16.3753000  58.1761350   2.4796380  16.3670900  59.1246270
   1.7843770  16.7136090  57.8252360  10.2834660  29.5454040  63.6508580
  10.9256890  28.8447200  63.7640750  10.8084010  30.3252480  63.4705470
  12.0572280  30.3448940  66.8544640  12.3928520  30.9315630  67.5322560
  11.1372620  30.2141650  67.0842430  13.7106630  27.7474600  55.0361880
  13.4228330  28.2087290  55.8239760  14.5058800  27.2872370  55.3046100
   7.8860860  30.3940270  70.0232700   7.5657730  29.6749510  70.5678390
   7.2119220  31.0695340  70.0968760   5.9275030  31.2400720  54.9665850
   5.9185130  31.9730410  54.3510360   5.0073390  30.9932300  55.0592810
  11.1014460  20.6266430  65.3869500  11.4695280  19.8061640  65.7149070
  10.2412660  20.6868320  65.8025150  14.4676490  19.5823370  56.1957060
  13.8389650  19.6869040  55.4815290  13.9728410  19.8020150  56.9850940
   8.9134630  31.3028960  53.6291040   9.0146610  31.0992950  52.6993020
   8.0136370  31.0487240  53.8338820   6.4360520  21.8609320  57.6114940
   5.7276670  22.3295660  58.0528550   6.7205000  21.2031330  58.2460130
   8.0616450  23.2806020  65.6107470   8.5601700  23.7551840  66.2759320
   8.2039400  22.3569540  65.8177500  10.4675950  18.5859980  59.0510730
  10.3443730  18.6046110  58.1020240  11.4160510  18.6338920  59.1709130
   7.5552740  33.8215280  58.3238710   7.8094240  33.7836670  57.4018080
   6.6065220  33.6948610  58.3166960   4.6395540  20.1694400  54.9865650
   5.4886070  20.6064550  54.9205840   4.2726810  20.4814660  55.8137710
  15.2683310  19.4973980  66.4535860  14.7656910  20.2379380  66.7929670
  16.0839970  19.8857980  66.1372650  13.5605320  24.7407160  59.8997220
  12.6195460  24.7557390  60.0744910  13.8749390  23.9543120  60.3457520
   3.5386960  26.4226760  53.4601180   4.3050230  26.3108120  54.0226610
   3.6161650  25.7264730  52.8077950   2.2333720  23.8551830  54.1434070
   2.3137310  22.9079340  54.2551470   3.1253470  24.1858710  54.2494730
   3.0348430  34.0047220  61.2468610   3.7710910  33.4562680  61.5177180
   3.4189350  34.8703230  61.1074600   2.0406710  33.1893290  70.4354190
   2.8419440  33.5105340  70.8489590   1.5258530  32.8288870  71.1574100
   6.1450740  33.1777530  53.0694180   6.9379350  33.4666360  52.6175970
   5.6255090  32.7469700  52.3906660  10.8771340  29.2973160  70.3829600
  10.2709500  29.3204760  69.6425350  10.5725450  28.5656200  70.9196850
  12.3071710  33.0253450  68.9939010  13.2593460  32.9411470  68.9439250
  12.1599930  33.6895160  69.6672800   6.6628140  28.3980940  52.9336530
   6.5578780  27.7833290  53.6597910   6.4952360  27.8746830  52.1499540
   6.8142460  27.0837740  68.9125760   6.0488130  27.6522740  68.8280430
   6.9958420  26.7913950  68.0193990   9.9030870  27.4600970  53.5378520
   9.3540970  27.9070270  54.1821260  10.5250130  26.9550220  54.0616190
  13.9565810  28.8143070  69.4700780  14.6975280  29.1518830  68.9668240
  13.1938490  28.9835130  68.9170550   1.7927600  23.8196340  70.2740310
   1.8332940  23.5210210  71.1825540   2.6473100  24.2203950  70.1147830
   5.5705990  26.4191890  55.4343820   5.9922410  26.2531760  56.2775210
   5.6956830  25.6092120  54.9398960   3.7333410  22.3988440  68.2414800
   3.2029870  21.9079390  67.6138140   4.4021480  22.8272640  67.7072730
   8.0833630  25.4429500  52.6820920   8.6039290  24.7278520  52.3162070
   8.7302030  26.0815370  52.9821430  12.6311470  26.8657900  68.0055990
  13.0452490  27.0202980  68.8546410  11.6962470  26.9913120  68.1681770
  13.1033640  24.2054060  70.0095140  13.6854410  23.4506380  69.9215620
  13.2795410  24.7361500  69.2326620   4.2205710  19.3650810  68.3212090
   4.1262580  18.7471560  67.5962960   3.6403100  20.0917100  68.0942000
   6.9867150  17.9224050  65.3539480   6.5384450  17.9448310  64.5085030
   6.3532350  17.5243070  65.9509780   7.3926700  26.8178380  65.9751920
   7.8114810  27.6611110  65.8028160   6.4735330  26.9550420  65.7458700
   9.7290600  24.5494560  67.3589760   9.8486810  23.9535700  68.0984600
  10.5884600  24.5864250  66.9391060  12.0678500  25.1031750  65.9352270
  11.5413720  25.6274370  65.3317410  12.4109840  25.7359140  66.5662000
   4.4664890  22.4925120  52.3801980   4.2653950  21.6292480  52.7415320
   4.2956940  22.4058480  51.4423580   5.2434120  33.1231390  67.0909650
   4.7055210  33.8477450  66.7718350   5.4968080  32.6461730  66.3006990
   6.4959370  21.0915910  68.6165580   7.0859060  20.7831760  69.3043400
   5.6779610  20.6195660  68.7725480  11.3152800  20.7081720  68.8498600
  10.6268320  20.0463260  68.7848590  12.0358820  20.2619990  69.2947060
  11.9453200  17.3033350  54.9088860  12.2255490  16.4601250  55.2648280
  11.1718930  17.5356460  55.4227610   3.2647690  19.5925740  52.3679860
   3.5673590  19.5993170  51.4599010   4.0042280  19.2423600  52.8647520
   8.0996330  34.3582600  67.3496300   8.0255030  35.2617740  67.6568670
   7.1975170  34.0394500  67.3218370   6.4832620  18.5360360  53.3536060
   6.1354620  17.8584350  52.7738510   6.6845390  18.0749870  54.1679450
   8.6481660  33.5241110  54.9722660   9.5432450  33.8626080  54.9941420
   8.6799290  32.8020520  54.3446940   2.2877820  28.8968160  53.2009660
   2.7252690  29.4397830  53.8567240   2.7725550  28.0715110  53.2106000
   4.0985540  30.0166200  58.3131890   3.7981080  29.8931170  59.2135800
   3.9923030  29.1574790  57.9047620  14.3127650  28.7796760  65.7765020
  13.4987490  29.2093920  66.0390810  14.7201850  29.3915170  65.1634070
  12.7728700  19.8589300  53.9718920  13.1913580  19.6720280  53.1315580
  12.4664760  19.0068350  54.2821850  15.6618050  23.9184960  67.3034240
  15.4304140  23.6897710  66.4032190  15.9222600  24.8384510  67.2579130
  14.1006120  19.1441390  70.0813940  14.9776300  19.1524790  70.4647940
  14.1126960  18.4072230  69.4706290  15.5469390  22.9970930  60.9701960
  16.0706870  22.5033580  60.3392130  16.1328810  23.1321290  61.7149530
  15.7259110  23.0810800  64.4921510  14.7761820  23.0474340  64.6066500
  15.9072120  23.9910910  64.2571280  15.0369360  22.2544280  56.9094370
  15.5328480  22.0215150  57.6943250  14.8385430  21.4156120  56.4932010
  14.8122240  16.8299360  65.9015050  15.4494460  17.4433500  66.2674240
  14.9597130  16.8660020  64.9564280  17.3546790  18.7213150  52.6838190
  18.2796100  18.5894330  52.4756480  17.3322580  18.8005970  53.6374640
  17.4285280  19.4923810  55.3094900  16.6336780  19.4268930  55.8387810
  17.6328560  20.4274450  55.2980250  14.3703700  33.5315360  59.3033290
  14.9662770  33.2099930  58.6267710  14.6281850  33.0587180  60.0946560
   2.2766270  29.9633270  69.4523920   2.2335900  29.5926180  70.3338380
   2.4077280  30.9010840  69.5925740   5.9772300  31.5192860  65.0533640
   5.7363660  31.7867420  64.1664160   6.9174940  31.6898590  65.1084500
   8.1826720  17.9825550  68.8090150   8.1215610  18.5747380  69.5585560
   9.1227100  17.8751510  68.6640410  10.8201280  17.6395610  68.4482440
  11.4341690  17.9574900  67.7863520  11.3650840  17.1544200  69.0678300
   2.1154300  32.9095520  66.5721700   1.5214620  32.7780220  67.3111740
   2.1078140  32.0733660  66.1063800  11.5609320  16.2027750  64.7751730
  10.6869160  16.5362860  64.5724660  11.4520070  15.7300930  65.6003600
  12.4681300  18.4098620  66.1593450  12.1394660  17.5950380  65.7795180
  13.4163600  18.3668430  66.0359140  14.9215910  34.1810660  63.1331020
  14.4618880  34.9326470  62.7589040  14.2928370  33.4617130  63.0745820
   5.3511630  32.4898900  62.3079150   5.8676650  31.8786260  61.7827410
   6.0009010  32.9927680  62.7990160   8.0907130  33.3807390  63.1348130
   8.3784940  33.1261690  62.2581140   8.6030350  32.8284750  63.7253700
   9.3084140  17.1197590  63.7144640   8.5255930  17.5943090  63.9941400
   9.0147070  16.2152420  63.6057820  13.8605210  17.8220690  61.7593730
  14.3013300  17.7665790  60.9115330  13.5912800  18.7378700  61.8303910
  15.7243780  17.4535930  59.7702550  15.6632180  16.5097150  59.6233570
  16.5035810  17.5616020  60.3156010   7.1938360  19.5384340  59.2260670
   6.3812870  19.1641230  58.8856550   7.6980000  18.7829420  59.5281860
  11.6963340  16.2026790  60.4643740  12.2992710  16.7747000  60.9392260
  10.9556330  16.7666230  60.2417640  14.8397940  16.6048350  55.7384020
  15.0348570  17.5031800  56.0051450  14.0527810  16.3735430  56.2316970
   3.0249700  17.9509120  54.7760330   3.5542460  17.1638920  54.6468280
   3.6578020  18.6300310  55.0095860   5.2187540  17.6884260  57.8305720
   4.5890280  16.9871570  57.9975850   4.6792680  18.4488390  57.6138880
   8.1579490  34.3023490  70.5016330   9.0846800  34.0667760  70.5452290
   8.1429920  35.1295490  70.0202360   5.3443100  16.9668240  70.2658210
   5.0627370  17.4701840  69.5019030   5.7262800  16.1689990  69.9000340
   4.2352200  34.2343900  55.0525890   4.9671020  33.9503180  54.5049780
   4.4945870  33.9957180  55.9425270   3.3966990  30.3508630  55.0572220
   2.7675870  30.8193730  55.6058050   3.5114820  29.5057850  55.4918410
  11.9458560  16.3821820  70.8438680  11.8324010  16.7016430  71.7390200
  12.7628300  16.7834330  70.5475960  14.7257050  33.5293350  70.3257370
  15.5182370  33.0342580  70.1183330  15.0190200  34.2083490  70.9332980
  10.8516710  24.4014290  41.2073420  10.7710760  23.4868900  40.9365130
  10.4381130  24.8981360  40.5013130   8.9834750  26.1793310  43.0882690
   8.2076850  25.6993750  43.3781260   9.6347680  25.4998960  42.9138850
   3.0000580  26.4913120  43.9658450   2.1685460  26.2361830  44.3654960
   3.6081560  26.5623890  44.7016370  13.0042180  30.5853500  41.8681820
  12.5423710  29.8140740  42.1968990  13.8167730  30.6119570  42.3734270
   2.9801840  30.5253210  44.1616470   3.2829880  29.6350950  43.9826690
   3.7245430  31.0823430  43.9338720   9.2305490  32.8711510  41.4885810
   8.6116930  33.3269010  40.9180250  10.0857270  33.0262970  41.0875510
   8.4243740  28.8550500  43.0952850   8.3552020  27.9140440  42.9341980
   9.1863600  28.9451910  43.6675420   9.4548910  21.6620880  43.3221780
   9.8313730  20.7892760  43.2095450   9.3568420  21.9979580  42.4312220
   3.5853920  20.0346510  38.7839220   3.6920670  20.9350240  39.0907980
   2.6746280  19.9864480  38.4933870  13.2373030  19.1571320  40.2550120
  14.0582650  18.6667890  40.2975600  13.2707110  19.7468980  41.0081960
   5.4261650  23.0032880  43.1164400   5.9339870  23.5013850  43.7569420
   5.9574890  22.2268080  42.9403760   3.7097750  17.6431440  47.3827820
   3.7116190  18.1603830  46.5773720   2.8802060  17.1661620  47.3597750
  10.0968840  27.7550750  38.8817720   9.4786110  28.2200200  38.3180440
  10.6092090  28.4478230  39.2987230   4.9600600  27.2826620  45.5601320
   4.6269980  27.9095540  46.2022390   5.1367280  27.8088500  44.7802990
  13.4734510  21.0971700  43.0277660  12.7690080  21.3856590  43.6080770
  13.8346670  21.9071810  42.6677220   3.3913080  19.3541400  45.3898270
   3.7329890  20.1983450  45.0952140   2.4528890  19.5025140  45.5063610
   4.1719700  29.2507420  47.3750500   4.7893700  29.9258500  47.0934950
   3.3112820  29.6595400  47.2838000  15.0897290  30.7146830  45.2905140
  14.4060810  31.3845940  45.2821810  15.6291580  30.9127480  44.5250000
  16.5421430  20.5426490  43.4186870  15.5946340  20.5765470  43.5502300
  16.8671420  21.3565440  43.8036230   7.0740970  16.8423670  41.7142860
   7.3815950  16.2870560  40.9978360   6.1441670  16.9768130  41.5315850
  12.6256030  32.5590960  44.0050320  12.6383190  32.1553250  43.1372580
  12.0731250  33.3338250  43.9011750  13.9201450  29.2807180  39.0940490
  13.8097780  28.3381510  39.2189910  13.9169700  29.6422820  39.9803250
  12.0241470  27.4620800  45.3332930  12.4410260  27.2480910  44.4986390
  12.7481290  27.7193590  45.9041550   9.4621730  24.9072500  38.4502980
   8.5351010  24.8409880  38.6791450   9.6146550  25.8452630  38.3358220
   9.4490810  21.1789500  35.4470140   8.5094480  21.3403460  35.5322600
   9.7674070  21.8975180  34.9006130  15.9703570  25.8608020  45.4249170
  15.1422200  25.9301110  44.9499300  16.5654050  26.4462330  44.9565000
  13.4919020  26.4692800  38.9538230  12.8731440  26.1312350  38.3064530
  13.4743470  25.8252560  39.6617420  12.9345580  22.6477340  46.3704040
  12.5216760  23.4731050  46.6244030  12.2021530  22.0622380  46.1780400
   5.0678370  25.4337240  41.2322710   4.6635370  24.7214490  40.7368610
   5.1541490  25.0890480  42.1210750   5.5360070  29.1204800  43.3961920
   5.2388360  28.5150270  42.7169700   6.4859890  29.1582110  43.2851280
   3.7806990  22.2080450  45.0121750   4.3321580  22.3175790  44.2375000
   4.2950500  22.5818050  45.7276980   4.6278500  28.8586490  50.0469720
   3.7307030  29.0826460  50.2943120   4.6531370  28.9821430  49.0981120
  11.6683720  25.7079610  35.9610980  12.1077000  24.8702040  35.8148800
  12.3812140  26.3409010  36.0475120   3.4549720  25.7299810  48.6227090
   3.3157490  26.6022610  48.9914490   2.5731080  25.3872620  48.4775030
   9.7779100  30.6475680  39.9292220  10.2175010  31.3900010  39.5147610
   9.7165990  30.8902250  40.8531180   5.2530070  31.6721510  50.8312240
   5.2245500  32.0764460  49.9640670   5.0895040  30.7431870  50.6683840
  15.2500860  16.9622420  34.2752020  14.9373520  17.0549250  35.1751090
  16.0113330  17.5403450  34.2249450   1.7683000  24.3282220  38.7329360
   1.6480600  25.0544310  38.1210630   1.4583890  23.5585130  38.2557270
  10.4694880  33.3489460  47.8571230  10.9839550  33.2597470  48.6593660
   9.6263960  33.6949160  48.1499140   4.9237660  33.4143330  39.0626850
   4.7480140  32.4978870  38.8494650   4.0693400  33.7730620  39.3024650
  12.1475410  31.1432360  35.8453230  11.4540570  31.1409650  35.1855510
  12.8898270  30.7191680  35.4147400  11.7125340  32.7695070  39.9201720
  12.1682290  31.9884450  40.2340340  12.0517860  33.4801890  40.4642900
  16.4602150  21.6993920  50.2526160  15.8446420  22.2073590  49.7241620
  16.1398570  20.7992250  50.1952100   4.2346660  17.6717290  42.1153030
   3.7914810  18.4526830  41.7837550   4.7931650  17.9947180  42.8223970
   8.5216470  20.5385810  47.7188350   8.0595840  20.7468830  48.5308290
   8.1194580  19.7245160  47.4159020  13.5220980  21.7594760  48.8485010
  12.6714570  21.4600510  49.1694080  13.3622770  22.0036770  47.9368830
  10.6170690  23.2596510  50.9483800  10.9424100  22.4260260  50.6086030
  11.4051020  23.7825030  51.0962130   7.3505480  17.2927990  36.9958860
   6.7259660  17.2887860  37.7212170   7.2635600  16.4258950  36.5994830
   6.2722560  18.2164620  43.9742630   6.5694890  19.1227450  43.8934650
   6.8208120  17.7283400  43.3602200   4.0260880  22.7950860  39.8434280
   3.8001800  22.5788030  40.7480900   3.2453410  23.2279320  39.4980250
  11.2558640  22.8014230  38.4424930  10.6567530  23.5250030  38.2588550
  11.8038250  22.7391010  37.6601380   6.4660090  23.6936440  50.5094550
   6.3703690  22.7531170  50.3594950   7.3092070  23.9151510  50.1142620
   9.8623510  21.4377770  40.4728210  10.2553080  21.7549970  39.6596900
  10.2240360  20.5589650  40.5872730   8.1715680  20.1885080  51.7325070
   7.4814000  19.9957280  52.3671160   8.9147980  20.4719720  52.2649370
  10.4478650  24.0283520  44.5678990   9.7159770  24.5370330  44.9169090
  10.0502990  23.2113500  44.2667770   6.8856040  20.7037720  42.9731480
   6.8892100  20.2627670  42.1236020   7.7807160  21.0255050  43.0803300
   2.7358420  20.5864210  41.9325690   2.3958470  21.0639440  42.6892740
   1.9735740  20.1329330  41.5726790   6.9476190  21.7049800  35.9638240
   7.0689010  21.6636280  36.9124060   6.5624700  22.5673950  35.8084970
  10.9104560  19.4817200  43.9801930  10.9277300  19.9325850  44.8243780
  10.6620140  18.5822840  44.1935370   5.9597690  24.0150940  35.3621540
   5.3914590  23.5669190  34.7357450   6.6686690  24.3743720  34.8286690
  14.3375310  16.8949380  49.8188310  14.6621080  16.1639040  50.3446290
  14.3731820  16.5763020  48.9169300   7.1864010  24.7639500  44.7196890
   7.5534140  24.2898070  45.4658230   6.9969070  25.6381070  45.0605230
   4.9763380  23.8048140  47.0381100   4.6720450  24.6840120  47.2631460
   5.9309840  23.8647930  47.0738540   3.5045170  28.0109130  37.6347950
   2.7307430  27.4706750  37.4746670   4.2339800  27.4915740  37.2965710
  14.2633150  27.0074490  43.4274340  14.9832270  27.5029780  43.0370450
  14.0614970  26.3292380  42.7828210   9.7243090  18.4012450  37.5703730
   8.9107700  17.9025620  37.4949040   9.5305040  19.2410700  37.1540080
   9.6451950  27.0783550  49.3143340   9.5789260  26.1579220  49.0600930
   9.0157090  27.1758990  50.0287980  12.4391480  22.7732100  35.8665890
  13.3271100  23.0849330  35.6917230  12.4096570  21.9004350  35.4746470
   3.5482570  27.6789510  41.2726760   4.0661240  26.8757770  41.2183650
   3.0966590  27.6168650  42.1143590   8.4352070  28.9455790  36.5454060
   8.7767770  29.6898020  36.0497380   7.6064780  29.2586910  36.9078890
   4.2340230  25.1035120  51.0692010   3.9340370  25.2492300  50.1719830
   5.0051470  24.5440410  50.9765400   9.5768680  29.9004120  49.0647140
   9.5913220  28.9685080  48.8466050   8.8693780  29.9863880  49.7036910
  14.7105750  24.0843940  35.3345750  14.6269470  24.5158160  34.4842190
  15.4299940  24.5442290  35.7672570  15.7879890  26.5411460  48.4115720
  15.0628080  27.1340240  48.2145110  16.3155350  26.5335000  47.6129090
  11.3179480  28.2671630  41.9099570  11.6703300  27.6699760  41.2500940
  10.4341810  27.9415860  42.0807820   7.4042760  29.0269320  39.3169980
   8.0913890  29.5738530  39.6977570   6.6175180  29.5710050  39.3519590
   6.7069970  26.0315350  38.9295340   7.1632750  26.8420600  39.1555530
   6.3558180  25.7138490  39.7613830   9.0102580  31.5421690  46.1587640
   9.6544800  31.7481070  46.8361060   9.3732020  30.7810090  45.7058490
   2.6081750  16.3753000  39.4017860   2.4796380  16.3670900  40.3502780
   1.7843770  16.7136090  39.0508870  10.2834660  29.5454040  44.8765090
  10.9256890  28.8447200  44.9897260  10.8084010  30.3252480  44.6961980
  14.1290380  29.8302660  34.6004230  13.9027960  29.1133100  35.1928870
  13.7386580  29.5815100  33.7625980  12.0572280  30.3448940  48.0801150
  12.3928520  30.9315630  48.7579070  11.1372620  30.2141650  48.3098940
  13.7106630  27.7474600  36.2618390  13.4228330  28.2087290  37.0496270
  14.5058800  27.2872370  36.5302610   7.8860860  30.3940270  51.2489210
   7.5657730  29.6749510  51.7934900   7.2119220  31.0695340  51.3225270
   5.9275030  31.2400720  36.1922360   5.9185130  31.9730410  35.5766870
   5.0073390  30.9932300  36.2849320  11.1014460  20.6266430  46.6126010
  11.4695280  19.8061640  46.9405580  10.2412660  20.6868320  47.0281660
  14.4676490  19.5823370  37.4213570  13.8389650  19.6869040  36.7071800
  13.9728410  19.8020150  38.2107450   8.9134630  31.3028960  34.8547550
   9.0146610  31.0992950  33.9249530   8.0136370  31.0487240  35.0595330
   6.4360520  21.8609320  38.8371450   5.7276670  22.3295660  39.2785060
   6.7205000  21.2031330  39.4716640   8.0616450  23.2806020  46.8363980
   8.5601700  23.7551840  47.5015830   8.2039400  22.3569540  47.0434010
  10.4675950  18.5859980  40.2767240  10.3443730  18.6046110  39.3276750
  11.4160510  18.6338920  40.3965640   7.5552740  33.8215280  39.5495220
   7.8094240  33.7836670  38.6274590   6.6065220  33.6948610  39.5423470
   4.6395540  20.1694400  36.2122160   5.4886070  20.6064550  36.1462350
   4.2726810  20.4814660  37.0394220  15.2683310  19.4973980  47.6792370
  14.7656910  20.2379380  48.0186180  16.0839970  19.8857980  47.3629160
  13.5605320  24.7407160  41.1253730  12.6195460  24.7557390  41.3001420
  13.8749390  23.9543120  41.5714030   3.5386960  26.4226760  34.6857690
   4.3050230  26.3108120  35.2483120   3.6161650  25.7264730  34.0334460
   2.2333720  23.8551830  35.3690580   2.3137310  22.9079340  35.4807980
   3.1253470  24.1858710  35.4751240  15.5630900  31.9116010  42.8007990
  15.6878320  32.7347180  43.2731800  16.4296460  31.7006740  42.4532140
   3.0348430  34.0047220  42.4725120   3.7710910  33.4562680  42.7433690
   3.4189350  34.8703230  42.3331110   2.0406710  33.1893290  51.6610700
   2.8419440  33.5105340  52.0746100   1.5258530  32.8288870  52.3830610
   6.1450740  33.1777530  34.2950690   6.9379350  33.4666360  33.8432480
   5.6255090  32.7469700  33.6163170  10.8771340  29.2973160  51.6086110
  10.2709500  29.3204760  50.8681860  10.5725450  28.5656200  52.1453360
   6.6628140  28.3980940  34.1593040   6.5578780  27.7833290  34.8854420
   6.4952360  27.8746830  33.3756050   6.8142460  27.0837740  50.1382270
   6.0488130  27.6522740  50.0536940   6.9958420  26.7913950  49.2450500
   9.9030870  27.4600970  34.7635030   9.3540970  27.9070270  35.4077770
  10.5250130  26.9550220  35.2872700  13.9565810  28.8143070  50.6957290
  14.6975280  29.1518830  50.1924750  13.1938490  28.9835130  50.1427060
   1.7927600  23.8196340  51.4996820   1.8332940  23.5210210  52.4082050
   2.6473100  24.2203950  51.3404340   5.5705990  26.4191890  36.6600330
   5.9922410  26.2531760  37.5031720   5.6956830  25.6092120  36.1655470
   3.7333410  22.3988440  49.4671310   3.2029870  21.9079390  48.8394650
   4.4021480  22.8272640  48.9329240   8.0833630  25.4429500  33.9077430
   8.6039290  24.7278520  33.5418580   8.7302030  26.0815370  34.2077940
  12.6311470  26.8657900  49.2312500  13.0452490  27.0202980  50.0802920
  11.6962470  26.9913120  49.3938280  13.1033640  24.2054060  51.2351650
  13.6854410  23.4506380  51.1472130  13.2795410  24.7361500  50.4583130
   4.2205710  19.3650810  49.5468600   4.1262580  18.7471560  48.8219470
   3.6403100  20.0917100  49.3198510   6.9867150  17.9224050  46.5795990
   6.5384450  17.9448310  45.7341540   6.3532350  17.5243070  47.1766290
   7.3926700  26.8178380  47.2008430   7.8114810  27.6611110  47.0284670
   6.4735330  26.9550420  46.9715210   9.7290600  24.5494560  48.5846270
   9.8486810  23.9535700  49.3241110  10.5884600  24.5864250  48.1647570
  12.0678500  25.1031750  47.1608780  11.5413720  25.6274370  46.5573920
  12.4109840  25.7359140  47.7918510   4.4664890  22.4925120  33.6058490
   4.2653950  21.6292480  33.9671830   4.2956940  22.4058480  32.6680090
   5.2434120  33.1231390  48.3166160   4.7055210  33.8477450  47.9974860
   5.4968080  32.6461730  47.5263500   6.4959370  21.0915910  49.8422090
   7.0859060  20.7831760  50.5299910   5.6779610  20.6195660  49.9981990
  11.3152800  20.7081720  50.0755110  10.6268320  20.0463260  50.0105100
  12.0358820  20.2619990  50.5203570  11.9453200  17.3033350  36.1345370
  12.2255490  16.4601250  36.4904790  11.1718930  17.5356460  36.6484120
   3.2647690  19.5925740  33.5936370   3.5673590  19.5993170  32.6855520
   4.0042280  19.2423600  34.0904030   8.0996330  34.3582600  48.5752810
   8.0255030  35.2617740  48.8825180   7.1975170  34.0394500  48.5474880
   6.4832620  18.5360360  34.5792570   6.1354620  17.8584350  33.9995020
   6.6845390  18.0749870  35.3935960   8.6481660  33.5241110  36.1979170
   9.5432450  33.8626080  36.2197930   8.6799290  32.8020520  35.5703450
   2.2877820  28.8968160  34.4266170   2.7252690  29.4397830  35.0823750
   2.7725550  28.0715110  34.4362510   4.0985540  30.0166200  39.5388400
   3.7981080  29.8931170  40.4392310   3.9923030  29.1574790  39.1304130
  16.3233920  26.5410080  36.7449280  17.0852830  27.1106730  36.8508970
  16.3388290  25.9737280  37.5157590  14.3127650  28.7796760  47.0021530
  13.4987490  29.2093920  47.2647320  14.7201850  29.3915170  46.3890580
  16.3753090  26.8344450  33.9021800  16.6501930  27.7423330  33.7741020
  16.1863830  26.7706980  34.8383790  12.7728700  19.8589300  35.1975430
  13.1913580  19.6720280  34.3572090  12.4664760  19.0068350  35.5078360
  16.2718430  24.7713440  38.8951230  15.8962030  24.0041370  38.4632520
  15.5421550  25.1536140  39.3826160  15.6618050  23.9184960  48.5290750
  15.4304140  23.6897710  47.6288700  15.9222600  24.8384510  48.4835640
  14.1006120  19.1441390  51.3070450  14.9776300  19.1524790  51.6904450
  14.1126960  18.4072230  50.6962800  15.5469390  22.9970930  42.1958470
  16.0706870  22.5033580  41.5648640  16.1328810  23.1321290  42.9406040
  15.7259110  23.0810800  45.7178020  14.7761820  23.0474340  45.8323010
  15.9072120  23.9910910  45.4827790  15.0369360  22.2544280  38.1350880
  15.5328480  22.0215150  38.9199760  14.8385430  21.4156120  37.7188520
  16.4656520  20.8905230  40.6688560  16.3555800  20.7361270  41.6070830
  17.2264110  20.3626170  40.4263970  14.8122240  16.8299360  47.1271560
  15.4494460  17.4433500  47.4930750  14.9597130  16.8660020  46.1820790
  17.3546790  18.7213150  33.9094700  18.2796100  18.5894330  33.7012990
  17.3322580  18.8005970  34.8631150  17.4285280  19.4923810  36.5351410
  16.6336780  19.4268930  37.0644320  17.6328560  20.4274450  36.5236760
  14.3703700  33.5315360  40.5289800  14.9662770  33.2099930  39.8524220
  14.6281850  33.0587180  41.3203070   2.2766270  29.9633270  50.6780430
   2.2335900  29.5926180  51.5594890   2.4077280  30.9010840  50.8182250
   5.9772300  31.5192860  46.2790150   5.7363660  31.7867420  45.3920670
   6.9174940  31.6898590  46.3341010   8.1826720  17.9825550  50.0346660
   8.1215610  18.5747380  50.7842070   9.1227100  17.8751510  49.8896920
  10.8201280  17.6395610  49.6738950  11.4341690  17.9574900  49.0120030
  11.3650840  17.1544200  50.2934810   2.1154300  32.9095520  47.7978210
   1.5214620  32.7780220  48.5368250   2.1078140  32.0733660  47.3320310
  11.5609320  16.2027750  46.0008240  10.6869160  16.5362860  45.7981170
  11.4520070  15.7300930  46.8260110  12.4681300  18.4098620  47.3849960
  12.1394660  17.5950380  47.0051690  13.4163600  18.3668430  47.2615650
   5.3511630  32.4898900  43.5335660   5.8676650  31.8786260  43.0083920
   6.0009010  32.9927680  44.0246670   8.0907130  33.3807390  44.3604640
   8.3784940  33.1261690  43.4837650   8.6030350  32.8284750  44.9510210
   9.3084140  17.1197590  44.9401150   8.5255930  17.5943090  45.2197910
   9.0147070  16.2152420  44.8314330  13.8605210  17.8220690  42.9850240
  14.3013300  17.7665790  42.1371840  13.5912800  18.7378700  43.0560420
  15.7243780  17.4535930  40.9959060  15.6632180  16.5097150  40.8490080
  16.5035810  17.5616020  41.5412520   7.1938360  19.5384340  40.4517180
   6.3812870  19.1641230  40.1113060   7.6980000  18.7829420  40.7538370
  11.6963340  16.2026790  41.6900250  12.2992710  16.7747000  42.1648770
  10.9556330  16.7666230  41.4674150  14.8397940  16.6048350  36.9640530
  15.0348570  17.5031800  37.2307960  14.0527810  16.3735430  37.4573480
   3.0249700  17.9509120  36.0016840   3.5542460  17.1638920  35.8724790
   3.6578020  18.6300310  36.2352370   5.2187540  17.6884260  39.0562230
   4.5890280  16.9871570  39.2232360   4.6792680  18.4488390  38.8395390
   8.1579490  34.3023490  51.7272840   9.0846800  34.0667760  51.7708800
   8.1429920  35.1295490  51.2458870   5.3443100  16.9668240  51.4914720
   5.0627370  17.4701840  50.7275540   5.7262800  16.1689990  51.1256850
   4.2352200  34.2343900  36.2782400   4.9671020  33.9503180  35.7306290
   4.4945870  33.9957180  37.1681780   3.3966990  30.3508630  36.2828730
   2.7675870  30.8193730  36.8314560   3.5114820  29.5057850  36.7174920
  11.9458560  16.3821820  52.0695190  11.8324010  16.7016430  52.9646710
  12.7628300  16.7834330  51.7732470  10.8516710  24.4014290  22.4329930
  10.7710760  23.4868900  22.1621640  10.4381130  24.8981360  21.7269640
   8.9834750  26.1793310  24.3139200   8.2076850  25.6993750  24.6037770
   9.6347680  25.4998960  24.1395360   3.0000580  26.4913120  25.1914960
   2.1685460  26.2361830  25.5911470   3.6081560  26.5623890  25.9272880
  13.0042180  30.5853500  23.0938330  12.5423710  29.8140740  23.4225500
  13.8167730  30.6119570  23.5990780   2.9801840  30.5253210  25.3872980
   3.2829880  29.6350950  25.2083200   3.7245430  31.0823430  25.1595230
   9.2305490  32.8711510  22.7142320   8.6116930  33.3269010  22.1436760
  10.0857270  33.0262970  22.3132020   8.4243740  28.8550500  24.3209360
   8.3552020  27.9140440  24.1598490   9.1863600  28.9451910  24.8931930
   9.4548910  21.6620880  24.5478290   9.8313730  20.7892760  24.4351960
   9.3568420  21.9979580  23.6568730   3.5853920  20.0346510  20.0095730
   3.6920670  20.9350240  20.3164490   2.6746280  19.9864480  19.7190380
  13.2373030  19.1571320  21.4806630  14.0582650  18.6667890  21.5232110
  13.2707110  19.7468980  22.2338470   5.4261650  23.0032880  24.3420910
   5.9339870  23.5013850  24.9825930   5.9574890  22.2268080  24.1660270
  17.5272580  21.1738070  28.0450260  16.8224750  21.5619780  27.5265370
  17.7930500  21.8688360  28.6471190   3.7097750  17.6431440  28.6084330
   3.7116190  18.1603830  27.8030230   2.8802060  17.1661620  28.5854260
  10.0968840  27.7550750  20.1074230   9.4786110  28.2200200  19.5436950
  10.6092090  28.4478230  20.5243740   4.9600600  27.2826620  26.7857830
   4.6269980  27.9095540  27.4278900   5.1367280  27.8088500  26.0059500
  13.4734510  21.0971700  24.2534170  12.7690080  21.3856590  24.8337280
  13.8346670  21.9071810  23.8933730   3.3913080  19.3541400  26.6154780
   3.7329890  20.1983450  26.3208650   2.4528890  19.5025140  26.7320120
   4.1719700  29.2507420  28.6007010   4.7893700  29.9258500  28.3191460
   3.3112820  29.6595400  28.5094510  15.0897290  30.7146830  26.5161650
  14.4060810  31.3845940  26.5078320  15.6291580  30.9127480  25.7506510
  16.5421430  20.5426490  24.6443380  15.5946340  20.5765470  24.7758810
  16.8671420  21.3565440  25.0292740   7.0740970  16.8423670  22.9399370
   7.3815950  16.2870560  22.2234870   6.1441670  16.9768130  22.7572360
  12.6256030  32.5590960  25.2306830  12.6383190  32.1553250  24.3629090
  12.0731250  33.3338250  25.1268260  13.9201450  29.2807180  20.3197000
  13.8097780  28.3381510  20.4446420  13.9169700  29.6422820  21.2059760
  12.0241470  27.4620800  26.5589440  12.4410260  27.2480910  25.7242900
  12.7481290  27.7193590  27.1298060   9.4621730  24.9072500  19.6759490
   8.5351010  24.8409880  19.9047960   9.6146550  25.8452630  19.5614730
   9.4490810  21.1789500  16.6726650   8.5094480  21.3403460  16.7579110
   9.7674070  21.8975180  16.1262640  15.9703570  25.8608020  26.6505680
  15.1422200  25.9301110  26.1755810  16.5654050  26.4462330  26.1821510
  13.4919020  26.4692800  20.1794740  12.8731440  26.1312350  19.5321040
  13.4743470  25.8252560  20.8873930  12.9345580  22.6477340  27.5960550
  12.5216760  23.4731050  27.8500540  12.2021530  22.0622380  27.4036910
   5.0678370  25.4337240  22.4579220   4.6635370  24.7214490  21.9625120
   5.1541490  25.0890480  23.3467260   5.5360070  29.1204800  24.6218430
   5.2388360  28.5150270  23.9426210   6.4859890  29.1582110  24.5107790
   3.7806990  22.2080450  26.2378260   4.3321580  22.3175790  25.4631510
   4.2950500  22.5818050  26.9533490  13.6245680  32.6936670  28.2841530
  13.1476240  33.5008860  28.0914140  12.9407470  32.0415000  28.4367740
   4.6278500  28.8586490  31.2726230   3.7307030  29.0826460  31.5199630
   4.6531370  28.9821430  30.3237630  11.6683720  25.7079610  17.1867490
  12.1077000  24.8702040  17.0405310  12.3812140  26.3409010  17.2731630
   3.4549720  25.7299810  29.8483600   3.3157490  26.6022610  30.2171000
   2.5731080  25.3872620  29.7031540   9.7779100  30.6475680  21.1548730
  10.2175010  31.3900010  20.7404120   9.7165990  30.8902250  22.0787690
   5.2530070  31.6721510  32.0568750   5.2245500  32.0764460  31.1897180
   5.0895040  30.7431870  31.8940350  15.2500860  16.9622420  15.5008530
  14.9373520  17.0549250  16.4007600  16.0113330  17.5403450  15.4505960
   1.7683000  24.3282220  19.9585870   1.6480600  25.0544310  19.3467140
   1.4583890  23.5585130  19.4813780  16.6078140  29.6461460  30.5132930
  16.7341200  29.4073340  29.5950110  16.6499520  28.8146000  30.9855010
  10.4694880  33.3489460  29.0827740  10.9839550  33.2597470  29.8850170
   9.6263960  33.6949160  29.3755650  12.4449280  33.6344800  18.5111740
  12.2850420  33.3447740  19.4093570  12.2795990  32.8584930  17.9756970
   4.9237660  33.4143330  20.2883360   4.7480140  32.4978870  20.0751160
   4.0693400  33.7730620  20.5281160  12.1475410  31.1432360  17.0709740
  11.4540570  31.1409650  16.4112020  12.8898270  30.7191680  16.6403910
  11.7125340  32.7695070  21.1458230  12.1682290  31.9884450  21.4596850
  12.0517860  33.4801890  21.6899410  16.4602150  21.6993920  31.4782670
  15.8446420  22.2073590  30.9498130  16.1398570  20.7992250  31.4208610
   4.2346660  17.6717290  23.3409540   3.7914810  18.4526830  23.0094060
   4.7931650  17.9947180  24.0480480   8.5216470  20.5385810  28.9444860
   8.0595840  20.7468830  29.7564800   8.1194580  19.7245160  28.6415530
  13.5220980  21.7594760  30.0741520  12.6714570  21.4600510  30.3950590
  13.3622770  22.0036770  29.1625340  10.6170690  23.2596510  32.1740310
  10.9424100  22.4260260  31.8342540  11.4051020  23.7825030  32.3218640
   7.3505480  17.2927990  18.2215370   6.7259660  17.2887860  18.9468680
   7.2635600  16.4258950  17.8251340   6.2722560  18.2164620  25.1999140
   6.5694890  19.1227450  25.1191160   6.8208120  17.7283400  24.5858710
   4.0260880  22.7950860  21.0690790   3.8001800  22.5788030  21.9737410
   3.2453410  23.2279320  20.7236760  11.2558640  22.8014230  19.6681440
  10.6567530  23.5250030  19.4845060  11.8038250  22.7391010  18.8857890
   6.4660090  23.6936440  31.7351060   6.3703690  22.7531170  31.5851460
   7.3092070  23.9151510  31.3399130   9.8623510  21.4377770  21.6984720
  10.2553080  21.7549970  20.8853410  10.2240360  20.5589650  21.8129240
   8.1715680  20.1885080  32.9581580   7.4814000  19.9957280  33.5927670
   8.9147980  20.4719720  33.4905880  10.4478650  24.0283520  25.7935500
   9.7159770  24.5370330  26.1425600  10.0502990  23.2113500  25.4924280
   6.8856040  20.7037720  24.1987990   6.8892100  20.2627670  23.3492530
   7.7807160  21.0255050  24.3059810   2.7358420  20.5864210  23.1582200
   2.3958470  21.0639440  23.9149250   1.9735740  20.1329330  22.7983300
   6.9476190  21.7049800  17.1894750   7.0689010  21.6636280  18.1380570
   6.5624700  22.5673950  17.0341480  10.9104560  19.4817200  25.2058440
  10.9277300  19.9325850  26.0500290  10.6620140  18.5822840  25.4191880
   5.9597690  24.0150940  16.5878050   5.3914590  23.5669190  15.9613960
   6.6686690  24.3743720  16.0543200  14.3375310  16.8949380  31.0444820
  14.6621080  16.1639040  31.5702800  14.3731820  16.5763020  30.1425810
   7.1864010  24.7639500  25.9453400   7.5534140  24.2898070  26.6914740
   6.9969070  25.6381070  26.2861740   4.9763380  23.8048140  28.2637610
   4.6720450  24.6840120  28.4887970   5.9309840  23.8647930  28.2995050
   3.5045170  28.0109130  18.8604460   2.7307430  27.4706750  18.7003180
   4.2339800  27.4915740  18.5222220  14.2633150  27.0074490  24.6530850
  14.9832270  27.5029780  24.2626960  14.0614970  26.3292380  24.0084720
   9.7243090  18.4012450  18.7960240   8.9107700  17.9025620  18.7205550
   9.5305040  19.2410700  18.3796590   9.6451950  27.0783550  30.5399850
   9.5789260  26.1579220  30.2857440   9.0157090  27.1758990  31.2544490
  12.4391480  22.7732100  17.0922400  13.3271100  23.0849330  16.9173740
  12.4096570  21.9004350  16.7002980   3.5482570  27.6789510  22.4983270
   4.0661240  26.8757770  22.4440160   3.0966590  27.6168650  23.3400100
   8.4352070  28.9455790  17.7710570   8.7767770  29.6898020  17.2753890
   7.6064780  29.2586910  18.1335400   4.2340230  25.1035120  32.2948520
   3.9340370  25.2492300  31.3976340   5.0051470  24.5440410  32.2021910
   9.5768680  29.9004120  30.2903650   9.5913220  28.9685080  30.0722560
   8.8693780  29.9863880  30.9293420  14.7105750  24.0843940  16.5602260
  14.6269470  24.5158160  15.7098700  15.4299940  24.5442290  16.9929080
  15.7879890  26.5411460  29.6372230  15.0628080  27.1340240  29.4401620
  16.3155350  26.5335000  28.8385600  15.7393000  30.9386200  19.2884390
  15.0969160  30.2841820  19.5628110  15.3523660  31.3441290  18.5125060
  11.3179480  28.2671630  23.1356080  11.6703300  27.6699760  22.4757450
  10.4341810  27.9415860  23.3064330   7.4042760  29.0269320  20.5426490
   8.0913890  29.5738530  20.9234080   6.6175180  29.5710050  20.5776100
   6.7069970  26.0315350  20.1551850   7.1632750  26.8420600  20.3812040
   6.3558180  25.7138490  20.9870340   9.0102580  31.5421690  27.3844150
   9.6544800  31.7481070  28.0617570   9.3732020  30.7810090  26.9315000
   2.6081750  16.3753000  20.6274370   2.4796380  16.3670900  21.5759290
   1.7843770  16.7136090  20.2765380  10.2834660  29.5454040  26.1021600
  10.9256890  28.8447200  26.2153770  10.8084010  30.3252480  25.9218490
  14.1290380  29.8302660  15.8260740  13.9027960  29.1133100  16.4185380
  13.7386580  29.5815100  14.9882490  12.0572280  30.3448940  29.3057660
  12.3928520  30.9315630  29.9835580  11.1372620  30.2141650  29.5355450
  13.7106630  27.7474600  17.4874900  13.4228330  28.2087290  18.2752780
  14.5058800  27.2872370  17.7559120   7.8860860  30.3940270  32.4745720
   7.5657730  29.6749510  33.0191410   7.2119220  31.0695340  32.5481780
   5.9275030  31.2400720  17.4178870   5.9185130  31.9730410  16.8023380
   5.0073390  30.9932300  17.5105830  11.1014460  20.6266430  27.8382520
  11.4695280  19.8061640  28.1662090  10.2412660  20.6868320  28.2538170
  14.4676490  19.5823370  18.6470080  13.8389650  19.6869040  17.9328310
  13.9728410  19.8020150  19.4363960   8.9134630  31.3028960  16.0804060
   9.0146610  31.0992950  15.1506040   8.0136370  31.0487240  16.2851840
   6.4360520  21.8609320  20.0627960   5.7276670  22.3295660  20.5041570
   6.7205000  21.2031330  20.6973150   8.0616450  23.2806020  28.0620490
   8.5601700  23.7551840  28.7272340   8.2039400  22.3569540  28.2690520
  10.4675950  18.5859980  21.5023750  10.3443730  18.6046110  20.5533260
  11.4160510  18.6338920  21.6222150   7.5552740  33.8215280  20.7751730
   7.8094240  33.7836670  19.8531100   6.6065220  33.6948610  20.7679980
   4.6395540  20.1694400  17.4378670   5.4886070  20.6064550  17.3718860
   4.2726810  20.4814660  18.2650730  15.2683310  19.4973980  28.9048880
  14.7656910  20.2379380  29.2442690  16.0839970  19.8857980  28.5885670
  13.5605320  24.7407160  22.3510240  12.6195460  24.7557390  22.5257930
  13.8749390  23.9543120  22.7970540   3.5386960  26.4226760  15.9114200
   4.3050230  26.3108120  16.4739630   3.6161650  25.7264730  15.2590970
   2.2333720  23.8551830  16.5947090   2.3137310  22.9079340  16.7064490
   3.1253470  24.1858710  16.7007750  15.5630900  31.9116010  24.0264500
  15.6878320  32.7347180  24.4988310  16.4296460  31.7006740  23.6788650
   3.0348430  34.0047220  23.6981630   3.7710910  33.4562680  23.9690200
   3.4189350  34.8703230  23.5587620   2.0406710  33.1893290  32.8867210
   2.8419440  33.5105340  33.3002610   1.5258530  32.8288870  33.6087120
   6.1450740  33.1777530  15.5207200   6.9379350  33.4666360  15.0688990
   5.6255090  32.7469700  14.8419680  10.8771340  29.2973160  32.8342620
  10.2709500  29.3204760  32.0938370  10.5725450  28.5656200  33.3709870
  15.1980910  32.4047660  16.9443940  14.9122420  31.9912800  16.1298120
  15.0000460  33.3335370  16.8244460   6.6628140  28.3980940  15.3849550
   6.5578780  27.7833290  16.1110930   6.4952360  27.8746830  14.6012560
   6.8142460  27.0837740  31.3638780   6.0488130  27.6522740  31.2793450
   6.9958420  26.7913950  30.4707010   9.9030870  27.4600970  15.9891540
   9.3540970  27.9070270  16.6334280  10.5250130  26.9550220  16.5129210
  13.9565810  28.8143070  31.9213800  14.6975280  29.1518830  31.4181260
  13.1938490  28.9835130  31.3683570   1.7927600  23.8196340  32.7253330
   1.8332940  23.5210210  33.6338560   2.6473100  24.2203950  32.5660850
   5.5705990  26.4191890  17.8856840   5.9922410  26.2531760  18.7288230
   5.6956830  25.6092120  17.3911980   3.7333410  22.3988440  30.6927820
   3.2029870  21.9079390  30.0651160   4.4021480  22.8272640  30.1585750
   8.0833630  25.4429500  15.1333940   8.6039290  24.7278520  14.7675090
   8.7302030  26.0815370  15.4334450  12.6311470  26.8657900  30.4569010
  13.0452490  27.0202980  31.3059430  11.6962470  26.9913120  30.6194790
  13.1033640  24.2054060  32.4608160  13.6854410  23.4506380  32.3728640
  13.2795410  24.7361500  31.6839640   4.2205710  19.3650810  30.7725110
   4.1262580  18.7471560  30.0475980   3.6403100  20.0917100  30.5455020
   6.9867150  17.9224050  27.8052500   6.5384450  17.9448310  26.9598050
   6.3532350  17.5243070  28.4022800   7.3926700  26.8178380  28.4264940
   7.8114810  27.6611110  28.2541180   6.4735330  26.9550420  28.1971720
   9.7290600  24.5494560  29.8102780   9.8486810  23.9535700  30.5497620
  10.5884600  24.5864250  29.3904080  12.0678500  25.1031750  28.3865290
  11.5413720  25.6274370  27.7830430  12.4109840  25.7359140  29.0175020
   4.4664890  22.4925120  14.8315000   4.2653950  21.6292480  15.1928340
   4.2956940  22.4058480  13.8936600   5.2434120  33.1231390  29.5422670
   4.7055210  33.8477450  29.2231370   5.4968080  32.6461730  28.7520010
   6.4959370  21.0915910  31.0678600   7.0859060  20.7831760  31.7556420
   5.6779610  20.6195660  31.2238500  11.3152800  20.7081720  31.3011620
  10.6268320  20.0463260  31.2361610  12.0358820  20.2619990  31.7460080
  11.9453200  17.3033350  17.3601880  12.2255490  16.4601250  17.7161300
  11.1718930  17.5356460  17.8740630   3.2647690  19.5925740  14.8192880
   3.5673590  19.5993170  13.9112030   4.0042280  19.2423600  15.3160540
   8.0996330  34.3582600  29.8009320   8.0255030  35.2617740  30.1081690
   7.1975170  34.0394500  29.7731390   6.4832620  18.5360360  15.8049080
   6.1354620  17.8584350  15.2251530   6.6845390  18.0749870  16.6192470
   8.6481660  33.5241110  17.4235680   9.5432450  33.8626080  17.4454440
   8.6799290  32.8020520  16.7959960   2.2877820  28.8968160  15.6522680
   2.7252690  29.4397830  16.3080260   2.7725550  28.0715110  15.6619020
   4.0985540  30.0166200  20.7644910   3.7981080  29.8931170  21.6648820
   3.9923030  29.1574790  20.3560640  15.6276010  32.0544780  30.1301880
  15.0278000  32.1137340  29.3865800  15.7569910  31.1149760  30.2598730
  16.8677460  29.7962600  15.4671590  16.0370420  29.8639250  15.9378820
  17.0449290  30.6866720  15.1638450  16.3233920  26.5410080  17.9705790
  17.0852830  27.1106730  18.0765480  16.3388290  25.9737280  18.7414100
  17.3293890  27.3960180  22.8147720  17.7002720  26.6127500  22.4083690
  17.9695820  28.0849280  22.6365020  14.3127650  28.7796760  28.2278040
  13.4987490  29.2093920  28.4903830  14.7201850  29.3915170  27.6147090
  16.3753090  26.8344450  15.1278310  16.6501930  27.7423330  14.9997530
  16.1863830  26.7706980  16.0640300  12.7728700  19.8589300  16.4231940
  13.1913580  19.6720280  15.5828600  12.4664760  19.0068350  16.7334870
  16.2718430  24.7713440  20.1207740  15.8962030  24.0041370  19.6889030
  15.5421550  25.1536140  20.6082670  15.6618050  23.9184960  29.7547260
  15.4304140  23.6897710  28.8545210  15.9222600  24.8384510  29.7092150
  14.1006120  19.1441390  32.5326960  14.9776300  19.1524790  32.9160960
  14.1126960  18.4072230  31.9219310  15.5469390  22.9970930  23.4214980
  16.0706870  22.5033580  22.7905150  16.1328810  23.1321290  24.1662550
  15.7259110  23.0810800  26.9434530  14.7761820  23.0474340  27.0579520
  15.9072120  23.9910910  26.7084300  15.0369360  22.2544280  19.3607390
  15.5328480  22.0215150  20.1456270  14.8385430  21.4156120  18.9445030
  16.4656520  20.8905230  21.8945070  16.3555800  20.7361270  22.8327340
  17.2264110  20.3626170  21.6520480  14.8122240  16.8299360  28.3528070
  15.4494460  17.4433500  28.7187260  14.9597130  16.8660020  27.4077300
  17.3546790  18.7213150  15.1351210  18.2796100  18.5894330  14.9269500
  17.3322580  18.8005970  16.0887660  17.4285280  19.4923810  17.7607920
  16.6336780  19.4268930  18.2900830  17.6328560  20.4274450  17.7493270
  14.3703700  33.5315360  21.7546310  14.9662770  33.2099930  21.0780730
  14.6281850  33.0587180  22.5459580   2.2766270  29.9633270  31.9036940
   2.2335900  29.5926180  32.7851400   2.4077280  30.9010840  32.0438760
   5.9772300  31.5192860  27.5046660   5.7363660  31.7867420  26.6177180
   6.9174940  31.6898590  27.5597520   8.1826720  17.9825550  31.2603170
   8.1215610  18.5747380  32.0098580   9.1227100  17.8751510  31.1153430
  10.8201280  17.6395610  30.8995460  11.4341690  17.9574900  30.2376540
  11.3650840  17.1544200  31.5191320  17.2376460  33.5387240  28.3057300
  16.7434740  33.9356110  27.5884430  16.6289750  32.9136450  28.6994580
   2.1154300  32.9095520  29.0234720   1.5214620  32.7780220  29.7624760
   2.1078140  32.0733660  28.5576820  11.5609320  16.2027750  27.2264750
  10.6869160  16.5362860  27.0237680  11.4520070  15.7300930  28.0516620
  12.4681300  18.4098620  28.6106470  12.1394660  17.5950380  28.2308200
  13.4163600  18.3668430  28.4872160  14.9215910  34.1810660  25.5844040
  14.4618880  34.9326470  25.2102060  14.2928370  33.4617130  25.5258840
   5.3511630  32.4898900  24.7592170   5.8676650  31.8786260  24.2340430
   6.0009010  32.9927680  25.2503180   8.0907130  33.3807390  25.5861150
   8.3784940  33.1261690  24.7094160   8.6030350  32.8284750  26.1766720
   9.3084140  17.1197590  26.1657660   8.5255930  17.5943090  26.4454420
   9.0147070  16.2152420  26.0570840  13.8605210  17.8220690  24.2106750
  14.3013300  17.7665790  23.3628350  13.5912800  18.7378700  24.2816930
  15.7243780  17.4535930  22.2215570  15.6632180  16.5097150  22.0746590
  16.5035810  17.5616020  22.7669030   7.1938360  19.5384340  21.6773690
   6.3812870  19.1641230  21.3369570   7.6980000  18.7829420  21.9794880
  11.6963340  16.2026790  22.9156760  12.2992710  16.7747000  23.3905280
  10.9556330  16.7666230  22.6930660  14.8397940  16.6048350  18.1897040
  15.0348570  17.5031800  18.4564470  14.0527810  16.3735430  18.6829990
   3.0249700  17.9509120  17.2273350   3.5542460  17.1638920  17.0981300
   3.6578020  18.6300310  17.4608880   5.2187540  17.6884260  20.2818740
   4.5890280  16.9871570  20.4488870   4.6792680  18.4488390  20.0651900
   8.1579490  34.3023490  32.9529350   9.0846800  34.0667760  32.9965310
   8.1429920  35.1295490  32.4715380  16.3924550  33.8449060  19.9503600
  16.5676740  33.1586800  19.3064520  15.6946120  34.3696110  19.5580270
   5.3443100  16.9668240  32.7171230   5.0627370  17.4701840  31.9532050
   5.7262800  16.1689990  32.3513360   4.2352200  34.2343900  17.5038910
   4.9671020  33.9503180  16.9562800   4.4945870  33.9957180  18.3938290
   3.3966990  30.3508630  17.5085240   2.7675870  30.8193730  18.0571070
   3.5114820  29.5057850  17.9431430  11.9458560  16.3821820  33.2951700
  11.8324010  16.7016430  34.1903220  12.7628300  16.7834330  32.9988980
  10.8516710  24.4014290   3.6586440  10.7710760  23.4868900   3.3878150
  10.4381130  24.8981360   2.9526150   8.9834750  26.1793310   5.5395710
   8.2076850  25.6993750   5.8294280   9.6347680  25.4998960   5.3651870
   3.0000580  26.4913120   6.4171470   2.1685460  26.2361830   6.8167980
   3.6081560  26.5623890   7.1529390  13.0042180  30.5853500   4.3194840
  12.5423710  29.8140740   4.6482010  13.8167730  30.6119570   4.8247290
   2.9801840  30.5253210   6.6129490   3.2829880  29.6350950   6.4339710
   3.7245430  31.0823430   6.3851740   9.2305490  32.8711510   3.9398830
   8.6116930  33.3269010   3.3693270  10.0857270  33.0262970   3.5388530
   8.4243740  28.8550500   5.5465870   8.3552020  27.9140440   5.3855000
   9.1863600  28.9451910   6.1188440   9.4548910  21.6620880   5.7734800
   9.8313730  20.7892760   5.6608470   9.3568420  21.9979580   4.8825240
  13.2373030  19.1571320   2.7063140  14.0582650  18.6667890   2.7488620
  13.2707110  19.7468980   3.4594980   5.4261650  23.0032880   5.5677420
   5.9339870  23.5013850   6.2082440   5.9574890  22.2268080   5.3916780
  17.5272580  21.1738070   9.2706770  16.8224750  21.5619780   8.7521880
  17.7930500  21.8688360   9.8727700   3.7097750  17.6431440   9.8340840
   3.7116190  18.1603830   9.0286740   2.8802060  17.1661620   9.8110770
   4.9600600  27.2826620   8.0114340   4.6269980  27.9095540   8.6535410
   5.1367280  27.8088500   7.2316010  13.4734510  21.0971700   5.4790680
  12.7690080  21.3856590   6.0593790  13.8346670  21.9071810   5.1190240
   3.3913080  19.3541400   7.8411290   3.7329890  20.1983450   7.5465160
   2.4528890  19.5025140   7.9576630   4.1719700  29.2507420   9.8263520
   4.7893700  29.9258500   9.5447970   3.3112820  29.6595400   9.7351020
  15.0897290  30.7146830   7.7418160  14.4060810  31.3845940   7.7334830
  15.6291580  30.9127480   6.9763020  16.5421430  20.5426490   5.8699890
  15.5946340  20.5765470   6.0015320  16.8671420  21.3565440   6.2549250
   7.0740970  16.8423670   4.1655880   7.3815950  16.2870560   3.4491380
   6.1441670  16.9768130   3.9828870  12.6256030  32.5590960   6.4563340
  12.6383190  32.1553250   5.5885600  12.0731250  33.3338250   6.3524770
  12.0241470  27.4620800   7.7845950  12.4410260  27.2480910   6.9499410
  12.7481290  27.7193590   8.3554570  15.9703570  25.8608020   7.8762190
  15.1422200  25.9301110   7.4012320  16.5654050  26.4462330   7.4078020
  12.9345580  22.6477340   8.8217060  12.5216760  23.4731050   9.0757050
  12.2021530  22.0622380   8.6293420   5.0678370  25.4337240   3.6835730
   4.6635370  24.7214490   3.1881630   5.1541490  25.0890480   4.5723770
   5.5360070  29.1204800   5.8474940   5.2388360  28.5150270   5.1682720
   6.4859890  29.1582110   5.7364300   3.7806990  22.2080450   7.4634770
   4.3321580  22.3175790   6.6888020   4.2950500  22.5818050   8.1790000
  13.6245680  32.6936670   9.5098040  13.1476240  33.5008860   9.3170650
  12.9407470  32.0415000   9.6624250   4.6278500  28.8586490  12.4982740
   3.7307030  29.0826460  12.7456140   4.6531370  28.9821430  11.5494140
   3.4549720  25.7299810  11.0740110   3.3157490  26.6022610  11.4427510
   2.5731080  25.3872620  10.9288050   9.7779100  30.6475680   2.3805240
  10.2175010  31.3900010   1.9660630   9.7165990  30.8902250   3.3044200
   5.2530070  31.6721510  13.2825260   5.2245500  32.0764460  12.4153690
   5.0895040  30.7431870  13.1196860  17.2044890  32.4548610  14.5789430
  17.6804610  32.9331500  15.2578510  17.8252050  32.3866100  13.8534930
  16.6078140  29.6461460  11.7389440  16.7341200  29.4073340  10.8206620
  16.6499520  28.8146000  12.2111520  10.4694880  33.3489460  10.3084250
  10.9839550  33.2597470  11.1106680   9.6263960  33.6949160  10.6012160
  11.7125340  32.7695070   2.3714740  12.1682290  31.9884450   2.6853360
  12.0517860  33.4801890   2.9155920  16.4602150  21.6993920  12.7039180
  15.8446420  22.2073590  12.1754640  16.1398570  20.7992250  12.6465120
   4.2346660  17.6717290   4.5666050   3.7914810  18.4526830   4.2350570
   4.7931650  17.9947180   5.2736990   8.5216470  20.5385810  10.1701370
   8.0595840  20.7468830  10.9821310   8.1194580  19.7245160   9.8672040
  13.5220980  21.7594760  11.2998030  12.6714570  21.4600510  11.6207100
  13.3622770  22.0036770  10.3881850  10.6170690  23.2596510  13.3996820
  10.9424100  22.4260260  13.0599050  11.4051020  23.7825030  13.5475150
   6.2722560  18.2164620   6.4255650   6.5694890  19.1227450   6.3447670
   6.8208120  17.7283400   5.8115220   4.0260880  22.7950860   2.2947300
   3.8001800  22.5788030   3.1993920   3.2453410  23.2279320   1.9493270
   6.4660090  23.6936440  12.9607570   6.3703690  22.7531170  12.8107970
   7.3092070  23.9151510  12.5655640   9.8623510  21.4377770   2.9241230
  10.2553080  21.7549970   2.1109920  10.2240360  20.5589650   3.0385750
   8.1715680  20.1885080  14.1838090   7.4814000  19.9957280  14.8184180
   8.9147980  20.4719720  14.7162390  10.4478650  24.0283520   7.0192010
   9.7159770  24.5370330   7.3682110  10.0502990  23.2113500   6.7180790
   6.8856040  20.7037720   5.4244500   6.8892100  20.2627670   4.5749040
   7.7807160  21.0255050   5.5316320   2.7358420  20.5864210   4.3838710
   2.3958470  21.0639440   5.1405760   1.9735740  20.1329330   4.0239810
  10.9104560  19.4817200   6.4314950  10.9277300  19.9325850   7.2756800
  10.6620140  18.5822840   6.6448390  14.3375310  16.8949380  12.2701330
  14.6621080  16.1639040  12.7959310  14.3731820  16.5763020  11.3682320
   7.1864010  24.7639500   7.1709910   7.5534140  24.2898070   7.9171250
   6.9969070  25.6381070   7.5118250   4.9763380  23.8048140   9.4894120
   4.6720450  24.6840120   9.7144480   5.9309840  23.8647930   9.5251560
  14.2633150  27.0074490   5.8787360  14.9832270  27.5029780   5.4883470
  14.0614970  26.3292380   5.2341230   9.6451950  27.0783550  11.7656360
   9.5789260  26.1579220  11.5113950   9.0157090  27.1758990  12.4801000
   3.5482570  27.6789510   3.7239780   4.0661240  26.8757770   3.6696670
   3.0966590  27.6168650   4.5656610   4.2340230  25.1035120  13.5205030
   3.9340370  25.2492300  12.6232850   5.0051470  24.5440410  13.4278420
   9.5768680  29.9004120  11.5160160   9.5913220  28.9685080  11.2979070
   8.8693780  29.9863880  12.1549930  15.7879890  26.5411460  10.8628740
  15.0628080  27.1340240  10.6658130  16.3155350  26.5335000  10.0642110
  11.3179480  28.2671630   4.3612590  11.6703300  27.6699760   3.7013960
  10.4341810  27.9415860   4.5320840   7.4042760  29.0269320   1.7683000
   8.0913890  29.5738530   2.1490590   6.6175180  29.5710050   1.8032610
   9.0102580  31.5421690   8.6100660   9.6544800  31.7481070   9.2874080
   9.3732020  30.7810090   8.1571510  10.2834660  29.5454040   7.3278110
  10.9256890  28.8447200   7.4410280  10.8084010  30.3252480   7.1475000
  12.0572280  30.3448940  10.5314170  12.3928520  30.9315630  11.2092090
  11.1372620  30.2141650  10.7611960   7.8860860  30.3940270  13.7002230
   7.5657730  29.6749510  14.2447920   7.2119220  31.0695340  13.7738290
  11.1014460  20.6266430   9.0639030  11.4695280  19.8061640   9.3918600
  10.2412660  20.6868320   9.4794680   8.0616450  23.2806020   9.2877000
   8.5601700  23.7551840   9.9528850   8.2039400  22.3569540   9.4947030
  10.4675950  18.5859980   2.7280260  10.3443730  18.6046110   1.7789770
  11.4160510  18.6338920   2.8478660  15.2683310  19.4973980  10.1305390
  14.7656910  20.2379380  10.4699200  16.0839970  19.8857980   9.8142180
  13.5605320  24.7407160   3.5766750  12.6195460  24.7557390   3.7514440
  13.8749390  23.9543120   4.0227050  15.5630900  31.9116010   5.2521010
  15.6878320  32.7347180   5.7244820  16.4296460  31.7006740   4.9045160
   3.0348430  34.0047220   4.9238140   3.7710910  33.4562680   5.1946710
   3.4189350  34.8703230   4.7844130   2.0406710  33.1893290  14.1123720
   2.8419440  33.5105340  14.5259120   1.5258530  32.8288870  14.8343630
  10.8771340  29.2973160  14.0599130  10.2709500  29.3204760  13.3194880
  10.5725450  28.5656200  14.5966380  12.3071710  33.0253450  12.6708540
  13.2593460  32.9411470  12.6208780  12.1599930  33.6895160  13.3442330
   6.8142460  27.0837740  12.5895290   6.0488130  27.6522740  12.5049960
   6.9958420  26.7913950  11.6963520  13.9565810  28.8143070  13.1470310
  14.6975280  29.1518830  12.6437770  13.1938490  28.9835130  12.5940080
   1.7927600  23.8196340  13.9509840   1.8332940  23.5210210  14.8595070
   2.6473100  24.2203950  13.7917360   3.7333410  22.3988440  11.9184330
   3.2029870  21.9079390  11.2907670   4.4021480  22.8272640  11.3842260
  12.6311470  26.8657900  11.6825520  13.0452490  27.0202980  12.5315940
  11.6962470  26.9913120  11.8451300  13.1033640  24.2054060  13.6864670
  13.6854410  23.4506380  13.5985150  13.2795410  24.7361500  12.9096150
   4.2205710  19.3650810  11.9981620   4.1262580  18.7471560  11.2732490
   3.6403100  20.0917100  11.7711530   6.9867150  17.9224050   9.0309010
   6.5384450  17.9448310   8.1854560   6.3532350  17.5243070   9.6279310
   7.3926700  26.8178380   9.6521450   7.8114810  27.6611110   9.4797690
   6.4735330  26.9550420   9.4228230   9.7290600  24.5494560  11.0359290
   9.8486810  23.9535700  11.7754130  10.5884600  24.5864250  10.6160590
  12.0678500  25.1031750   9.6121800  11.5413720  25.6274370   9.0086940
  12.4109840  25.7359140  10.2431530   5.2434120  33.1231390  10.7679180
   4.7055210  33.8477450  10.4487880   5.4968080  32.6461730   9.9776520
   6.4959370  21.0915910  12.2935110   7.0859060  20.7831760  12.9812930
   5.6779610  20.6195660  12.4495010  11.3152800  20.7081720  12.5268130
  10.6268320  20.0463260  12.4618120  12.0358820  20.2619990  12.9716590
   8.0996330  34.3582600  11.0265830   8.0255030  35.2617740  11.3338200
   7.1975170  34.0394500  10.9987900  15.6276010  32.0544780  11.3558390
  15.0278000  32.1137340  10.6122310  15.7569910  31.1149760  11.4855240
  17.3293890  27.3960180   4.0404230  17.7002720  26.6127500   3.6340200
  17.9695820  28.0849280   3.8621530  14.3127650  28.7796760   9.4534550
  13.4987490  29.2093920   9.7160340  14.7201850  29.3915170   8.8403600
  15.6618050  23.9184960  10.9803770  15.4304140  23.6897710  10.0801720
  15.9222600  24.8384510  10.9348660  14.1006120  19.1441390  13.7583470
  14.9776300  19.1524790  14.1417470  14.1126960  18.4072230  13.1475820
  15.5469390  22.9970930   4.6471490  16.0706870  22.5033580   4.0161660
  16.1328810  23.1321290   5.3919060  15.7259110  23.0810800   8.1691040
  14.7761820  23.0474340   8.2836030  15.9072120  23.9910910   7.9340810
  16.4656520  20.8905230   3.1201580  16.3555800  20.7361270   4.0583850
  17.2264110  20.3626170   2.8776990  14.8122240  16.8299360   9.5784580
  15.4494460  17.4433500   9.9443770  14.9597130  16.8660020   8.6333810
  14.3703700  33.5315360   2.9802820  14.9662770  33.2099930   2.3037240
  14.6281850  33.0587180   3.7716090   2.2766270  29.9633270  13.1293450
   2.2335900  29.5926180  14.0107910   2.4077280  30.9010840  13.2695270
   5.9772300  31.5192860   8.7303170   5.7363660  31.7867420   7.8433690
   6.9174940  31.6898590   8.7854030   8.1826720  17.9825550  12.4859680
   8.1215610  18.5747380  13.2355090   9.1227100  17.8751510  12.3409940
  10.8201280  17.6395610  12.1251970  11.4341690  17.9574900  11.4633050
  11.3650840  17.1544200  12.7447830  17.2376460  33.5387240   9.5313810
  16.7434740  33.9356110   8.8140940  16.6289750  32.9136450   9.9251090
   2.1154300  32.9095520  10.2491230   1.5214620  32.7780220  10.9881270
   2.1078140  32.0733660   9.7833330  11.5609320  16.2027750   8.4521260
  10.6869160  16.5362860   8.2494190  11.4520070  15.7300930   9.2773130
  12.4681300  18.4098620   9.8362980  12.1394660  17.5950380   9.4564710
  13.4163600  18.3668430   9.7128670  14.9215910  34.1810660   6.8100550
  14.4618880  34.9326470   6.4358570  14.2928370  33.4617130   6.7515350
   5.3511630  32.4898900   5.9848680   5.8676650  31.8786260   5.4596940
   6.0009010  32.9927680   6.4759690   8.0907130  33.3807390   6.8117660
   8.3784940  33.1261690   5.9350670   8.6030350  32.8284750   7.4023230
   9.3084140  17.1197590   7.3914170   8.5255930  17.5943090   7.6710930
   9.0147070  16.2152420   7.2827350  13.8605210  17.8220690   5.4363260
  14.3013300  17.7665790   4.5884860  13.5912800  18.7378700   5.5073440
  15.7243780  17.4535930   3.4472080  15.6632180  16.5097150   3.3003100
  16.5035810  17.5616020   3.9925540   7.1938360  19.5384340   2.9030200
   6.3812870  19.1641230   2.5626080   7.6980000  18.7829420   3.2051390
  11.6963340  16.2026790   4.1413270  12.2992710  16.7747000   4.6161790
  10.9556330  16.7666230   3.9187170   8.1579490  34.3023490  14.1785860
   9.0846800  34.0667760  14.2221820   8.1429920  35.1295490  13.6971890
   5.3443100  16.9668240  13.9427740   5.0627370  17.4701840  13.1788560
   5.7262800  16.1689990  13.5769870  11.9458560  16.3821820  14.5208210
  11.8324010  16.7016430  15.4159730  12.7628300  16.7834330  14.2245490
  14.7257050  33.5293350  14.0026900  15.5182370  33.0342580  13.7952860
  15.0190200  34.2083490  14.6102510  10.8516710   5.6270800  78.7560400
  10.7710760   4.7125410  78.4852110  10.4381130   6.1237870  78.0500110
   8.9834750   7.4049820  80.6369670   8.2076850   6.9250260  80.9268240
   9.6347680   6.7255470  80.4625830   3.0000580   7.7169630  81.5145430
   2.1685460   7.4618340  81.9141940   3.6081560   7.7880400  82.2503350
  13.0042180  11.8110010  79.4168800  12.5423710  11.0397250  79.7455970
  13.8167730  11.8376080  79.9221250   2.9801840  11.7509720  81.7103450
   3.2829880  10.8607460  81.5313670   3.7245430  12.3079940  81.4825700
   9.2305490  14.0968020  79.0372790   8.6116930  14.5525520  78.4667230
  10.0857270  14.2519480  78.6362490   8.4243740  10.0807010  80.6439830
   8.3552020   9.1396950  80.4828960   9.1863600  10.1708420  81.2162400
   9.4548910   2.8877390  80.8708760   9.8313730   2.0149270  80.7582430
   9.3568420   3.2236090  79.9799200   5.4261650   4.2289390  80.6651380
   5.9339870   4.7270360  81.3056400   5.9574890   3.4524590  80.4890740
  10.0968840   8.9807260  76.4304700   9.4786110   9.4456710  75.8667420
  10.6092090   9.6734740  76.8474210   4.9600600   8.5083130  83.1088300
   4.6269980   9.1352050  83.7509370   5.1367280   9.0345010  82.3289970
  13.4734510   2.3228210  80.5764640  12.7690080   2.6113100  81.1567750
  13.8346670   3.1328320  80.2164200  15.0897290  11.9403340  82.8392120
  14.4060810  12.6102450  82.8308790  15.6291580  12.1383990  82.0736980
  16.5421430   1.7683000  80.9673850  15.5946340   1.8021980  81.0989280
  16.8671420   2.5821950  81.3523210  12.6256030  13.7847470  81.5537300
  12.6383190  13.3809760  80.6859560  12.0731250  14.5594760  81.4498730
  13.9201450  10.5063690  76.6427470  13.8097780   9.5638020  76.7676890
  13.9169700  10.8679330  77.5290230  12.0241470   8.6877310  82.8819910
  12.4410260   8.4737420  82.0473370  12.7481290   8.9450100  83.4528530
   9.4621730   6.1329010  75.9989960   8.5351010   6.0666390  76.2278430
   9.6146550   7.0709140  75.8845200   9.4490810   2.4046010  72.9957120
   8.5094480   2.5659970  73.0809580   9.7674070   3.1231690  72.4493110
  15.9703570   7.0864530  82.9736150  15.1422200   7.1557620  82.4986280
  16.5654050   7.6718840  82.5051980  13.4919020   7.6949310  76.5025210
  12.8731440   7.3568860  75.8551510  13.4743470   7.0509070  77.2104400
   5.0678370   6.6593750  78.7809690   4.6635370   5.9471000  78.2855590
   5.1541490   6.3146990  79.6697730   5.5360070  10.3461310  80.9448900
   5.2388360   9.7406780  80.2656680   6.4859890  10.3838620  80.8338260
   3.7806990   3.4336960  82.5608730   4.3321580   3.5432300  81.7861980
   4.2950500   3.8074560  83.2763960  11.6683720   6.9336120  73.5097960
  12.1077000   6.0958550  73.3635780  12.3812140   7.5665520  73.5962100
   9.7779100  11.8732190  77.4779200  10.2175010  12.6156520  77.0634590
   9.7165990  12.1158760  78.4018160   1.7683000   5.5538730  76.2816340
   1.6480600   6.2800820  75.6697610   1.4583890   4.7841640  75.8044250
  12.4449280  14.8601310  74.8342210  12.2850420  14.5704250  75.7324040
  12.2795990  14.0841440  74.2987440   4.9237660  14.6399840  76.6113830
   4.7480140  13.7235380  76.3981630   4.0693400  14.9987130  76.8511630
  12.1475410  12.3688870  73.3940210  11.4540570  12.3666160  72.7342490
  12.8898270  11.9448190  72.9634380  11.7125340  13.9951580  77.4688700
  12.1682290  13.2140960  77.7827320  12.0517860  14.7058400  78.0129880
   4.0260880   4.0207370  77.3921260   3.8001800   3.8044540  78.2967880
   3.2453410   4.4535830  77.0467230  11.2558640   4.0270740  75.9911910
  10.6567530   4.7506540  75.8075530  11.8038250   3.9647520  75.2088360
   9.8623510   2.6634280  78.0215190  10.2553080   2.9806480  77.2083880
  10.2240360   1.7846160  78.1359710  10.4478650   5.2540030  82.1165970
   9.7159770   5.7626840  82.4656070  10.0502990   4.4370010  81.8154750
   6.8856040   1.9294230  80.5218460   6.8892100   1.4884180  79.6723000
   7.7807160   2.2511560  80.6290280   6.9476190   2.9306310  73.5125220
   7.0689010   2.8892790  74.4611040   6.5624700   3.7930460  73.3571950
   5.9597690   5.2407450  72.9108520   5.3914590   4.7925700  72.2844430
   6.6686690   5.6000230  72.3773670   7.1864010   5.9896010  82.2683870
   7.5534140   5.5154580  83.0145210   6.9969070   6.8637580  82.6092210
   3.5045170   9.2365640  75.1834930   2.7307430   8.6963260  75.0233650
   4.2339800   8.7172250  74.8452690  14.2633150   8.2331000  80.9761320
  14.9832270   8.7286290  80.5857430  14.0614970   7.5548890  80.3315190
  12.4391480   3.9988610  73.4152870  13.3271100   4.3105840  73.2404210
  12.4096570   3.1260860  73.0233450   3.5482570   8.9046020  78.8213740
   4.0661240   8.1014280  78.7670630   3.0966590   8.8425160  79.6630570
   8.4352070  10.1712300  74.0941040   8.7767770  10.9154530  73.5984360
   7.6064780  10.4843420  74.4565870  14.7105750   5.3100450  72.8832730
  14.6269470   5.7414670  72.0329170  15.4299940   5.7698800  73.3159550
  15.7393000  12.1642710  75.6114860  15.0969160  11.5098330  75.8858580
  15.3523660  12.5697800  74.8355530  11.3179480   9.4928140  79.4586550
  11.6703300   8.8956270  78.7987920  10.4341810   9.1672370  79.6294800
   7.4042760  10.2525830  76.8656960   8.0913890  10.7995040  77.2464550
   6.6175180  10.7966560  76.9006570   6.7069970   7.2571860  76.4782320
   7.1632750   8.0677110  76.7042510   6.3558180   6.9395000  77.3100810
  10.2834660  10.7710550  82.4252070  10.9256890  10.0703710  82.5384240
  10.8084010  11.5508990  82.2448960  14.1290380  11.0559170  72.1491210
  13.9027960  10.3389610  72.7415850  13.7386580  10.8071610  71.3112960
  13.7106630   8.9731110  73.8105370  13.4228330   9.4343800  74.5983250
  14.5058800   8.5128880  74.0789590   5.9275030  12.4657230  73.7409340
   5.9185130  13.1986920  73.1253850   5.0073390  12.2188810  73.8336300
   8.9134630  12.5285470  72.4034530   9.0146610  12.3249460  71.4736510
   8.0136370  12.2743750  72.6082310   6.4360520   3.0865830  76.3858430
   5.7276670   3.5552170  76.8272040   6.7205000   2.4287840  77.0203620
   7.5552740  15.0471790  77.0982200   7.8094240  15.0093180  76.1761570
   6.6065220  14.9205120  77.0910450  13.5605320   5.9663670  78.6740710
  12.6195460   5.9813900  78.8488400  13.8749390   5.1799630  79.1201010
   3.5386960   7.6483270  72.2344670   4.3050230   7.5364630  72.7970100
   3.6161650   6.9521240  71.5821440   2.2333720   5.0808340  72.9177560
   2.3137310   4.1335850  73.0294960   3.1253470   5.4115220  73.0238220
  15.5630900  13.1372520  80.3494970  15.6878320  13.9603690  80.8218780
  16.4296460  12.9263250  80.0019120   3.0348430  15.2303730  80.0212100
   3.7710910  14.6819190  80.2920670   3.4189350  16.0959740  79.8818090
   6.1450740  14.4034040  71.8437670   6.9379350  14.6922870  71.3919460
   5.6255090  13.9726210  71.1650150  15.1980910  13.6304170  73.2674410
  14.9122420  13.2169310  72.4528590  15.0000460  14.5591880  73.1474930
   6.6628140   9.6237450  71.7080020   6.5578780   9.0089800  72.4341400
   6.4952360   9.1003340  70.9243030   9.9030870   8.6857480  72.3122010
   9.3540970   9.1326780  72.9564750  10.5250130   8.1806730  72.8359680
   5.5705990   7.6448400  74.2087310   5.9922410   7.4788270  75.0518700
   5.6956830   6.8348630  73.7142450   8.0833630   6.6686010  71.4564410
   8.6039290   5.9535030  71.0905560   8.7302030   7.3071880  71.7564920
   4.4664890   3.7181630  71.1545470   4.2653950   2.8548990  71.5158810
   4.2956940   3.6314990  70.2167070   8.6481660  14.7497620  73.7466150
   9.5432450  15.0882590  73.7684910   8.6799290  14.0277030  73.1190430
   2.2877820  10.1224670  71.9753150   2.7252690  10.6654340  72.6310730
   2.7725550   9.2971620  71.9849490   4.0985540  11.2422710  77.0875380
   3.7981080  11.1187680  77.9879290   3.9923030  10.3831300  76.6791110
  16.8677460  11.0219110  71.7902060  16.0370420  11.0895760  72.2609290
  17.0449290  11.9123230  71.4868920  16.3233920   7.7666590  74.2936260
  17.0852830   8.3363240  74.3995950  16.3388290   7.1993790  75.0644570
  17.3293890   8.6216690  79.1378190  17.7002720   7.8384010  78.7314160
  17.9695820   9.3105790  78.9595490  16.3753090   8.0600960  71.4508780
  16.6501930   8.9679840  71.3228000  16.1863830   7.9963490  72.3870770
  16.2718430   5.9969950  76.4438210  15.8962030   5.2297880  76.0119500
  15.5421550   6.3792650  76.9313140  15.5469390   4.2227440  79.7445450
  16.0706870   3.7290090  79.1135620  16.1328810   4.3577800  80.4893020
  15.7259110   4.3067310  83.2665000  14.7761820   4.2730850  83.3809990
  15.9072120   5.2167420  83.0314770  15.0369360   3.4800790  75.6837860
  15.5328480   3.2471660  76.4686740  14.8385430   2.6412630  75.2675500
  16.4656520   2.1161740  78.2175540  16.3555800   1.9617780  79.1557810
  17.2264110   1.5882680  77.9750950  14.3703700  14.7571870  78.0776780
  14.9662770  14.4356440  77.4011200  14.6281850  14.2843690  78.8690050
  14.9215910  15.4067170  81.9074510  14.4618880  16.1582980  81.5332530
  14.2928370  14.6873640  81.8489310   5.3511630  13.7155410  81.0822640
   5.8676650  13.1042770  80.5570900   6.0009010  14.2184190  81.5733650
   8.0907130  14.6063900  81.9091620   8.3784940  14.3518200  81.0324630
   8.6030350  14.0541260  82.4997190  16.3924550  15.0705570  76.2734070
  16.5676740  14.3843310  75.6294990  15.6946120  15.5952620  75.8810740
   4.2352200  15.4600410  73.8269380   4.9671020  15.1759690  73.2793270
   4.4945870  15.2213690  74.7168760   3.3966990  11.5765140  73.8315710
   2.7675870  12.0450240  74.3801540   3.5114820  10.7314360  74.2661900
  10.8516710   5.6270800  59.9816910  10.7710760   4.7125410  59.7108620
  10.4381130   6.1237870  59.2756620   8.9834750   7.4049820  61.8626180
   8.2076850   6.9250260  62.1524750   9.6347680   6.7255470  61.6882340
   3.0000580   7.7169630  62.7401940   2.1685460   7.4618340  63.1398450
   3.6081560   7.7880400  63.4759860  13.0042180  11.8110010  60.6425310
  12.5423710  11.0397250  60.9712480  13.8167730  11.8376080  61.1477760
   2.9801840  11.7509720  62.9359960   3.2829880  10.8607460  62.7570180
   3.7245430  12.3079940  62.7082210   9.2305490  14.0968020  60.2629300
   8.6116930  14.5525520  59.6923740  10.0857270  14.2519480  59.8619000
   8.4243740  10.0807010  61.8696340   8.3552020   9.1396950  61.7085470
   9.1863600  10.1708420  62.4418910   9.4548910   2.8877390  62.0965270
   9.8313730   2.0149270  61.9838940   9.3568420   3.2236090  61.2055710
   5.4261650   4.2289390  61.8907890   5.9339870   4.7270360  62.5312910
   5.9574890   3.4524590  61.7147250  17.5272580   2.3994580  65.5937240
  16.8224750   2.7876290  65.0752350  17.7930500   3.0944870  66.1958170
  10.0968840   8.9807260  57.6561210   9.4786110   9.4456710  57.0923930
  10.6092090   9.6734740  58.0730720   4.9600600   8.5083130  64.3344810
   4.6269980   9.1352050  64.9765880   5.1367280   9.0345010  63.5546480
  13.4734510   2.3228210  61.8021150  12.7690080   2.6113100  62.3824260
  13.8346670   3.1328320  61.4420710   4.1719700  10.4763930  66.1493990
   4.7893700  11.1515010  65.8678440   3.3112820  10.8851910  66.0581490
  15.0897290  11.9403340  64.0648630  14.4060810  12.6102450  64.0565300
  15.6291580  12.1383990  63.2993490  16.5421430   1.7683000  62.1930360
  15.5946340   1.8021980  62.3245790  16.8671420   2.5821950  62.5779720
  12.6256030  13.7847470  62.7793810  12.6383190  13.3809760  61.9116070
  12.0731250  14.5594760  62.6755240  13.9201450  10.5063690  57.8683980
  13.8097780   9.5638020  57.9933400  13.9169700  10.8679330  58.7546740
  12.0241470   8.6877310  64.1076420  12.4410260   8.4737420  63.2729880
  12.7481290   8.9450100  64.6785040   9.4621730   6.1329010  57.2246470
   8.5351010   6.0666390  57.4534940   9.6146550   7.0709140  57.1101710
   9.4490810   2.4046010  54.2213630   8.5094480   2.5659970  54.3066090
   9.7674070   3.1231690  53.6749620  15.9703570   7.0864530  64.1992660
  15.1422200   7.1557620  63.7242790  16.5654050   7.6718840  63.7308490
  13.4919020   7.6949310  57.7281720  12.8731440   7.3568860  57.0808020
  13.4743470   7.0509070  58.4360910  12.9345580   3.8733850  65.1447530
  12.5216760   4.6987560  65.3987520  12.2021530   3.2878890  64.9523890
   5.0678370   6.6593750  60.0066200   4.6635370   5.9471000  59.5112100
   5.1541490   6.3146990  60.8954240   5.5360070  10.3461310  62.1705410
   5.2388360   9.7406780  61.4913190   6.4859890  10.3838620  62.0594770
   3.7806990   3.4336960  63.7865240   4.3321580   3.5432300  63.0118490
   4.2950500   3.8074560  64.5020470  13.6245680  13.9193180  65.8328510
  13.1476240  14.7265370  65.6401120  12.9407470  13.2671510  65.9854720
   4.6278500  10.0843000  68.8213210   3.7307030  10.3082970  69.0686610
   4.6531370  10.2077940  67.8724610  11.6683720   6.9336120  54.7354470
  12.1077000   6.0958550  54.5892290  12.3812140   7.5665520  54.8218610
   3.4549720   6.9556320  67.3970580   3.3157490   7.8279120  67.7657980
   2.5731080   6.6129130  67.2518520   9.7779100  11.8732190  58.7035710
  10.2175010  12.6156520  58.2891100   9.7165990  12.1158760  59.6274670
   5.2530070  12.8978020  69.6055730   5.2245500  13.3020970  68.7384160
   5.0895040  11.9688380  69.4427330   1.7683000   5.5538730  57.5072850
   1.6480600   6.2800820  56.8954120   1.4583890   4.7841640  57.0300760
  17.2044890  13.6805120  70.9019900  17.6804610  14.1588010  71.5808980
  17.8252050  13.6122610  70.1765400  16.6078140  10.8717970  68.0619910
  16.7341200  10.6329850  67.1437090  16.6499520  10.0402510  68.5341990
  10.4694880  14.5745970  66.6314720  10.9839550  14.4853980  67.4337150
   9.6263960  14.9205670  66.9242630  12.4449280  14.8601310  56.0598720
  12.2850420  14.5704250  56.9580550  12.2795990  14.0841440  55.5243950
   4.9237660  14.6399840  57.8370340   4.7480140  13.7235380  57.6238140
   4.0693400  14.9987130  58.0768140  12.1475410  12.3688870  54.6196720
  11.4540570  12.3666160  53.9599000  12.8898270  11.9448190  54.1890890
  11.7125340  13.9951580  58.6945210  12.1682290  13.2140960  59.0083830
  12.0517860  14.7058400  59.2386390  16.4602150   2.9250430  69.0269650
  15.8446420   3.4330100  68.4985110  16.1398570   2.0248760  68.9695590
  13.5220980   2.9851270  67.6228500  12.6714570   2.6857020  67.9437570
  13.3622770   3.2293280  66.7112320  10.6170690   4.4853020  69.7227290
  10.9424100   3.6516770  69.3829520  11.4051020   5.0081540  69.8705620
   4.0260880   4.0207370  58.6177770   3.8001800   3.8044540  59.5224390
   3.2453410   4.4535830  58.2723740  11.2558640   4.0270740  57.2168420
  10.6567530   4.7506540  57.0332040  11.8038250   3.9647520  56.4344870
   6.4660090   4.9192950  69.2838040   6.3703690   3.9787680  69.1338440
   7.3092070   5.1408020  68.8886110   9.8623510   2.6634280  59.2471700
  10.2553080   2.9806480  58.4340390  10.2240360   1.7846160  59.3616220
  10.4478650   5.2540030  63.3422480   9.7159770   5.7626840  63.6912580
  10.0502990   4.4370010  63.0411260   6.8856040   1.9294230  61.7474970
   6.8892100   1.4884180  60.8979510   7.7807160   2.2511560  61.8546790
   6.9476190   2.9306310  54.7381730   7.0689010   2.8892790  55.6867550
   6.5624700   3.7930460  54.5828460   5.9597690   5.2407450  54.1365030
   5.3914590   4.7925700  53.5100940   6.6686690   5.6000230  53.6030180
   7.1864010   5.9896010  63.4940380   7.5534140   5.5154580  64.2401720
   6.9969070   6.8637580  63.8348720   4.9763380   5.0304650  65.8124590
   4.6720450   5.9096630  66.0374950   5.9309840   5.0904440  65.8482030
   3.5045170   9.2365640  56.4091440   2.7307430   8.6963260  56.2490160
   4.2339800   8.7172250  56.0709200  14.2633150   8.2331000  62.2017830
  14.9832270   8.7286290  61.8113940  14.0614970   7.5548890  61.5571700
   9.6451950   8.3040060  68.0886830   9.5789260   7.3835730  67.8344420
   9.0157090   8.4015500  68.8031470  12.4391480   3.9988610  54.6409380
  13.3271100   4.3105840  54.4660720  12.4096570   3.1260860  54.2489960
   3.5482570   8.9046020  60.0470250   4.0661240   8.1014280  59.9927140
   3.0966590   8.8425160  60.8887080   8.4352070  10.1712300  55.3197550
   8.7767770  10.9154530  54.8240870   7.6064780  10.4843420  55.6822380
   4.2340230   6.3291630  69.8435500   3.9340370   6.4748810  68.9463320
   5.0051470   5.7696920  69.7508890   9.5768680  11.1260630  67.8390630
   9.5913220  10.1941590  67.6209540   8.8693780  11.2120390  68.4780400
  14.7105750   5.3100450  54.1089240  14.6269470   5.7414670  53.2585680
  15.4299940   5.7698800  54.5416060  15.7879890   7.7667970  67.1859210
  15.0628080   8.3596750  66.9888600  16.3155350   7.7591510  66.3872580
  15.7393000  12.1642710  56.8371370  15.0969160  11.5098330  57.1115090
  15.3523660  12.5697800  56.0612040  11.3179480   9.4928140  60.6843060
  11.6703300   8.8956270  60.0244430  10.4341810   9.1672370  60.8551310
   7.4042760  10.2525830  58.0913470   8.0913890  10.7995040  58.4721060
   6.6175180  10.7966560  58.1263080   6.7069970   7.2571860  57.7038830
   7.1632750   8.0677110  57.9299020   6.3558180   6.9395000  58.5357320
   9.0102580  12.7678200  64.9331130   9.6544800  12.9737580  65.6104550
   9.3732020  12.0066600  64.4801980  10.2834660  10.7710550  63.6508580
  10.9256890  10.0703710  63.7640750  10.8084010  11.5508990  63.4705470
  14.1290380  11.0559170  53.3747720  13.9027960  10.3389610  53.9672360
  13.7386580  10.8071610  52.5369470  12.0572280  11.5705450  66.8544640
  12.3928520  12.1572140  67.5322560  11.1372620  11.4398160  67.0842430
  13.7106630   8.9731110  55.0361880  13.4228330   9.4343800  55.8239760
  14.5058800   8.5128880  55.3046100   7.8860860  11.6196780  70.0232700
   7.5657730  10.9006020  70.5678390   7.2119220  12.2951850  70.0968760
   5.9275030  12.4657230  54.9665850   5.9185130  13.1986920  54.3510360
   5.0073390  12.2188810  55.0592810   8.9134630  12.5285470  53.6291040
   9.0146610  12.3249460  52.6993020   8.0136370  12.2743750  53.8338820
   6.4360520   3.0865830  57.6114940   5.7276670   3.5552170  58.0528550
   6.7205000   2.4287840  58.2460130   8.0616450   4.5062530  65.6107470
   8.5601700   4.9808350  66.2759320   8.2039400   3.5826050  65.8177500
   7.5552740  15.0471790  58.3238710   7.8094240  15.0093180  57.4018080
   6.6065220  14.9205120  58.3166960  13.5605320   5.9663670  59.8997220
  12.6195460   5.9813900  60.0744910  13.8749390   5.1799630  60.3457520
   3.5386960   7.6483270  53.4601180   4.3050230   7.5364630  54.0226610
   3.6161650   6.9521240  52.8077950   2.2333720   5.0808340  54.1434070
   2.3137310   4.1335850  54.2551470   3.1253470   5.4115220  54.2494730
  15.5630900  13.1372520  61.5751480  15.6878320  13.9603690  62.0475290
  16.4296460  12.9263250  61.2275630   3.0348430  15.2303730  61.2468610
   3.7710910  14.6819190  61.5177180   3.4189350  16.0959740  61.1074600
   2.0406710  14.4149800  70.4354190   2.8419440  14.7361850  70.8489590
   1.5258530  14.0545380  71.1574100   6.1450740  14.4034040  53.0694180
   6.9379350  14.6922870  52.6175970   5.6255090  13.9726210  52.3906660
  10.8771340  10.5229670  70.3829600  10.2709500  10.5461270  69.6425350
  10.5725450   9.7912710  70.9196850  12.3071710  14.2509960  68.9939010
  13.2593460  14.1667980  68.9439250  12.1599930  14.9151670  69.6672800
  15.1980910  13.6304170  54.4930920  14.9122420  13.2169310  53.6785100
  15.0000460  14.5591880  54.3731440   6.6628140   9.6237450  52.9336530
   6.5578780   9.0089800  53.6597910   6.4952360   9.1003340  52.1499540
   6.8142460   8.3094250  68.9125760   6.0488130   8.8779250  68.8280430
   6.9958420   8.0170460  68.0193990   9.9030870   8.6857480  53.5378520
   9.3540970   9.1326780  54.1821260  10.5250130   8.1806730  54.0616190
  13.9565810  10.0399580  69.4700780  14.6975280  10.3775340  68.9668240
  13.1938490  10.2091640  68.9170550   1.7927600   5.0452850  70.2740310
   1.8332940   4.7466720  71.1825540   2.6473100   5.4460460  70.1147830
   5.5705990   7.6448400  55.4343820   5.9922410   7.4788270  56.2775210
   5.6956830   6.8348630  54.9398960   3.7333410   3.6244950  68.2414800
   3.2029870   3.1335900  67.6138140   4.4021480   4.0529150  67.7072730
   8.0833630   6.6686010  52.6820920   8.6039290   5.9535030  52.3162070
   8.7302030   7.3071880  52.9821430  12.6311470   8.0914410  68.0055990
  13.0452490   8.2459490  68.8546410  11.6962470   8.2169630  68.1681770
  13.1033640   5.4310570  70.0095140  13.6854410   4.6762890  69.9215620
  13.2795410   5.9618010  69.2326620   7.3926700   8.0434890  65.9751920
   7.8114810   8.8867620  65.8028160   6.4735330   8.1806930  65.7458700
   9.7290600   5.7751070  67.3589760   9.8486810   5.1792210  68.0984600
  10.5884600   5.8120760  66.9391060  12.0678500   6.3288260  65.9352270
  11.5413720   6.8530880  65.3317410  12.4109840   6.9615650  66.5662000
   4.4664890   3.7181630  52.3801980   4.2653950   2.8548990  52.7415320
   4.2956940   3.6314990  51.4423580   5.2434120  14.3487900  67.0909650
   4.7055210  15.0733960  66.7718350   5.4968080  13.8718240  66.3006990
   6.4959370   2.3172420  68.6165580   7.0859060   2.0088270  69.3043400
   5.6779610   1.8452170  68.7725480   8.0996330  15.5839110  67.3496300
   8.0255030  16.4874250  67.6568670   7.1975170  15.2651010  67.3218370
   8.6481660  14.7497620  54.9722660   9.5432450  15.0882590  54.9941420
   8.6799290  14.0277030  54.3446940   2.2877820  10.1224670  53.2009660
   2.7252690  10.6654340  53.8567240   2.7725550   9.2971620  53.2106000
   4.0985540  11.2422710  58.3131890   3.7981080  11.1187680  59.2135800
   3.9923030  10.3831300  57.9047620  15.6276010  13.2801290  67.6788860
  15.0278000  13.3393850  66.9352780  15.7569910  12.3406270  67.8085710
  16.8677460  11.0219110  53.0158570  16.0370420  11.0895760  53.4865800
  17.0449290  11.9123230  52.7125430  16.3233920   7.7666590  55.5192770
  17.0852830   8.3363240  55.6252460  16.3388290   7.1993790  56.2901080
  17.3293890   8.6216690  60.3634700  17.7002720   7.8384010  59.9570670
  17.9695820   9.3105790  60.1852000  14.3127650  10.0053270  65.7765020
  13.4987490  10.4350430  66.0390810  14.7201850  10.6171680  65.1634070
  16.3753090   8.0600960  52.6765290  16.6501930   8.9679840  52.5484510
  16.1863830   7.9963490  53.6127280  16.2718430   5.9969950  57.6694720
  15.8962030   5.2297880  57.2376010  15.5421550   6.3792650  58.1569650
  15.6618050   5.1441470  67.3034240  15.4304140   4.9154220  66.4032190
  15.9222600   6.0641020  67.2579130  15.5469390   4.2227440  60.9701960
  16.0706870   3.7290090  60.3392130  16.1328810   4.3577800  61.7149530
  15.7259110   4.3067310  64.4921510  14.7761820   4.2730850  64.6066500
  15.9072120   5.2167420  64.2571280  15.0369360   3.4800790  56.9094370
  15.5328480   3.2471660  57.6943250  14.8385430   2.6412630  56.4932010
  16.4656520   2.1161740  59.4432050  16.3555800   1.9617780  60.3814320
  17.2264110   1.5882680  59.2007460  14.3703700  14.7571870  59.3033290
  14.9662770  14.4356440  58.6267710  14.6281850  14.2843690  60.0946560
   2.2766270  11.1889780  69.4523920   2.2335900  10.8182690  70.3338380
   2.4077280  12.1267350  69.5925740   5.9772300  12.7449370  65.0533640
   5.7363660  13.0123930  64.1664160   6.9174940  12.9155100  65.1084500
  17.2376460  14.7643750  65.8544280  16.7434740  15.1612620  65.1371410
  16.6289750  14.1392960  66.2481560   2.1154300  14.1352030  66.5721700
   1.5214620  14.0036730  67.3111740   2.1078140  13.2990170  66.1063800
  14.9215910  15.4067170  63.1331020  14.4618880  16.1582980  62.7589040
  14.2928370  14.6873640  63.0745820   5.3511630  13.7155410  62.3079150
   5.8676650  13.1042770  61.7827410   6.0009010  14.2184190  62.7990160
   8.0907130  14.6063900  63.1348130   8.3784940  14.3518200  62.2581140
   8.6030350  14.0541260  63.7253700   8.1579490  15.5280000  70.5016330
   9.0846800  15.2924270  70.5452290   8.1429920  16.3552000  70.0202360
  16.3924550  15.0705570  57.4990580  16.5676740  14.3843310  56.8551500
  15.6946120  15.5952620  57.1067250   4.2352200  15.4600410  55.0525890
   4.9671020  15.1759690  54.5049780   4.4945870  15.2213690  55.9425270
   3.3966990  11.5765140  55.0572220   2.7675870  12.0450240  55.6058050
   3.5114820  10.7314360  55.4918410  14.7257050  14.7549860  70.3257370
  15.5182370  14.2599090  70.1183330  15.0190200  15.4340000  70.9332980
  10.8516710   5.6270800  41.2073420  10.7710760   4.7125410  40.9365130
  10.4381130   6.1237870  40.5013130   8.9834750   7.4049820  43.0882690
   8.2076850   6.9250260  43.3781260   9.6347680   6.7255470  42.9138850
   3.0000580   7.7169630  43.9658450   2.1685460   7.4618340  44.3654960
   3.6081560   7.7880400  44.7016370  13.0042180  11.8110010  41.8681820
  12.5423710  11.0397250  42.1968990  13.8167730  11.8376080  42.3734270
   2.9801840  11.7509720  44.1616470   3.2829880  10.8607460  43.9826690
   3.7245430  12.3079940  43.9338720   9.2305490  14.0968020  41.4885810
   8.6116930  14.5525520  40.9180250  10.0857270  14.2519480  41.0875510
   8.4243740  10.0807010  43.0952850   8.3552020   9.1396950  42.9341980
   9.1863600  10.1708420  43.6675420   9.4548910   2.8877390  43.3221780
   9.8313730   2.0149270  43.2095450   9.3568420   3.2236090  42.4312220
   5.4261650   4.2289390  43.1164400   5.9339870   4.7270360  43.7569420
   5.9574890   3.4524590  42.9403760  17.5272580   2.3994580  46.8193750
  16.8224750   2.7876290  46.3008860  17.7930500   3.0944870  47.4214680
  10.0968840   8.9807260  38.8817720   9.4786110   9.4456710  38.3180440
  10.6092090   9.6734740  39.2987230   4.9600600   8.5083130  45.5601320
   4.6269980   9.1352050  46.2022390   5.1367280   9.0345010  44.7802990
  13.4734510   2.3228210  43.0277660  12.7690080   2.6113100  43.6080770
  13.8346670   3.1328320  42.6677220   4.1719700  10.4763930  47.3750500
   4.7893700  11.1515010  47.0934950   3.3112820  10.8851910  47.2838000
  15.0897290  11.9403340  45.2905140  14.4060810  12.6102450  45.2821810
  15.6291580  12.1383990  44.5250000  16.5421430   1.7683000  43.4186870
  15.5946340   1.8021980  43.5502300  16.8671420   2.5821950  43.8036230
  12.6256030  13.7847470  44.0050320  12.6383190  13.3809760  43.1372580
  12.0731250  14.5594760  43.9011750  13.9201450  10.5063690  39.0940490
  13.8097780   9.5638020  39.2189910  13.9169700  10.8679330  39.9803250
  12.0241470   8.6877310  45.3332930  12.4410260   8.4737420  44.4986390
  12.7481290   8.9450100  45.9041550   9.4621730   6.1329010  38.4502980
   8.5351010   6.0666390  38.6791450   9.6146550   7.0709140  38.3358220
   9.4490810   2.4046010  35.4470140   8.5094480   2.5659970  35.5322600
   9.7674070   3.1231690  34.9006130  15.9703570   7.0864530  45.4249170
  15.1422200   7.1557620  44.9499300  16.5654050   7.6718840  44.9565000
  13.4919020   7.6949310  38.9538230  12.8731440   7.3568860  38.3064530
  13.4743470   7.0509070  39.6617420  12.9345580   3.8733850  46.3704040
  12.5216760   4.6987560  46.6244030  12.2021530   3.2878890  46.1780400
   5.0678370   6.6593750  41.2322710   4.6635370   5.9471000  40.7368610
   5.1541490   6.3146990  42.1210750   5.5360070  10.3461310  43.3961920
   5.2388360   9.7406780  42.7169700   6.4859890  10.3838620  43.2851280
   3.7806990   3.4336960  45.0121750   4.3321580   3.5432300  44.2375000
   4.2950500   3.8074560  45.7276980  13.6245680  13.9193180  47.0585020
  13.1476240  14.7265370  46.8657630  12.9407470  13.2671510  47.2111230
   4.6278500  10.0843000  50.0469720   3.7307030  10.3082970  50.2943120
   4.6531370  10.2077940  49.0981120  11.6683720   6.9336120  35.9610980
  12.1077000   6.0958550  35.8148800  12.3812140   7.5665520  36.0475120
   3.4549720   6.9556320  48.6227090   3.3157490   7.8279120  48.9914490
   2.5731080   6.6129130  48.4775030   9.7779100  11.8732190  39.9292220
  10.2175010  12.6156520  39.5147610   9.7165990  12.1158760  40.8531180
   5.2530070  12.8978020  50.8312240   5.2245500  13.3020970  49.9640670
   5.0895040  11.9688380  50.6683840   1.7683000   5.5538730  38.7329360
   1.6480600   6.2800820  38.1210630   1.4583890   4.7841640  38.2557270
  17.2044890  13.6805120  52.1276410  17.6804610  14.1588010  52.8065490
  17.8252050  13.6122610  51.4021910  16.6078140  10.8717970  49.2876420
  16.7341200  10.6329850  48.3693600  16.6499520  10.0402510  49.7598500
  10.4694880  14.5745970  47.8571230  10.9839550  14.4853980  48.6593660
   9.6263960  14.9205670  48.1499140  12.4449280  14.8601310  37.2855230
  12.2850420  14.5704250  38.1837060  12.2795990  14.0841440  36.7500460
   4.9237660  14.6399840  39.0626850   4.7480140  13.7235380  38.8494650
   4.0693400  14.9987130  39.3024650  12.1475410  12.3688870  35.8453230
  11.4540570  12.3666160  35.1855510  12.8898270  11.9448190  35.4147400
  11.7125340  13.9951580  39.9201720  12.1682290  13.2140960  40.2340340
  12.0517860  14.7058400  40.4642900  16.4602150   2.9250430  50.2526160
  15.8446420   3.4330100  49.7241620  16.1398570   2.0248760  50.1952100
  13.5220980   2.9851270  48.8485010  12.6714570   2.6857020  49.1694080
  13.3622770   3.2293280  47.9368830  10.6170690   4.4853020  50.9483800
  10.9424100   3.6516770  50.6086030  11.4051020   5.0081540  51.0962130
   4.0260880   4.0207370  39.8434280   3.8001800   3.8044540  40.7480900
   3.2453410   4.4535830  39.4980250  11.2558640   4.0270740  38.4424930
  10.6567530   4.7506540  38.2588550  11.8038250   3.9647520  37.6601380
   6.4660090   4.9192950  50.5094550   6.3703690   3.9787680  50.3594950
   7.3092070   5.1408020  50.1142620   9.8623510   2.6634280  40.4728210
  10.2553080   2.9806480  39.6596900  10.2240360   1.7846160  40.5872730
  10.4478650   5.2540030  44.5678990   9.7159770   5.7626840  44.9169090
  10.0502990   4.4370010  44.2667770   6.8856040   1.9294230  42.9731480
   6.8892100   1.4884180  42.1236020   7.7807160   2.2511560  43.0803300
   6.9476190   2.9306310  35.9638240   7.0689010   2.8892790  36.9124060
   6.5624700   3.7930460  35.8084970   5.9597690   5.2407450  35.3621540
   5.3914590   4.7925700  34.7357450   6.6686690   5.6000230  34.8286690
   7.1864010   5.9896010  44.7196890   7.5534140   5.5154580  45.4658230
   6.9969070   6.8637580  45.0605230   4.9763380   5.0304650  47.0381100
   4.6720450   5.9096630  47.2631460   5.9309840   5.0904440  47.0738540
   3.5045170   9.2365640  37.6347950   2.7307430   8.6963260  37.4746670
   4.2339800   8.7172250  37.2965710  14.2633150   8.2331000  43.4274340
  14.9832270   8.7286290  43.0370450  14.0614970   7.5548890  42.7828210
   9.6451950   8.3040060  49.3143340   9.5789260   7.3835730  49.0600930
   9.0157090   8.4015500  50.0287980  12.4391480   3.9988610  35.8665890
  13.3271100   4.3105840  35.6917230  12.4096570   3.1260860  35.4746470
   3.5482570   8.9046020  41.2726760   4.0661240   8.1014280  41.2183650
   3.0966590   8.8425160  42.1143590   8.4352070  10.1712300  36.5454060
   8.7767770  10.9154530  36.0497380   7.6064780  10.4843420  36.9078890
   4.2340230   6.3291630  51.0692010   3.9340370   6.4748810  50.1719830
   5.0051470   5.7696920  50.9765400   9.5768680  11.1260630  49.0647140
   9.5913220  10.1941590  48.8466050   8.8693780  11.2120390  49.7036910
  14.7105750   5.3100450  35.3345750  14.6269470   5.7414670  34.4842190
  15.4299940   5.7698800  35.7672570  15.7879890   7.7667970  48.4115720
  15.0628080   8.3596750  48.2145110  16.3155350   7.7591510  47.6129090
  15.7393000  12.1642710  38.0627880  15.0969160  11.5098330  38.3371600
  15.3523660  12.5697800  37.2868550  11.3179480   9.4928140  41.9099570
  11.6703300   8.8956270  41.2500940  10.4341810   9.1672370  42.0807820
   7.4042760  10.2525830  39.3169980   8.0913890  10.7995040  39.6977570
   6.6175180  10.7966560  39.3519590   6.7069970   7.2571860  38.9295340
   7.1632750   8.0677110  39.1555530   6.3558180   6.9395000  39.7613830
   9.0102580  12.7678200  46.1587640   9.6544800  12.9737580  46.8361060
   9.3732020  12.0066600  45.7058490  10.2834660  10.7710550  44.8765090
  10.9256890  10.0703710  44.9897260  10.8084010  11.5508990  44.6961980
  14.1290380  11.0559170  34.6004230  13.9027960  10.3389610  35.1928870
  13.7386580  10.8071610  33.7625980  12.0572280  11.5705450  48.0801150
  12.3928520  12.1572140  48.7579070  11.1372620  11.4398160  48.3098940
  13.7106630   8.9731110  36.2618390  13.4228330   9.4343800  37.0496270
  14.5058800   8.5128880  36.5302610   7.8860860  11.6196780  51.2489210
   7.5657730  10.9006020  51.7934900   7.2119220  12.2951850  51.3225270
   5.9275030  12.4657230  36.1922360   5.9185130  13.1986920  35.5766870
   5.0073390  12.2188810  36.2849320   8.9134630  12.5285470  34.8547550
   9.0146610  12.3249460  33.9249530   8.0136370  12.2743750  35.0595330
   6.4360520   3.0865830  38.8371450   5.7276670   3.5552170  39.2785060
   6.7205000   2.4287840  39.4716640   8.0616450   4.5062530  46.8363980
   8.5601700   4.9808350  47.5015830   8.2039400   3.5826050  47.0434010
   7.5552740  15.0471790  39.5495220   7.8094240  15.0093180  38.6274590
   6.6065220  14.9205120  39.5423470  13.5605320   5.9663670  41.1253730
  12.6195460   5.9813900  41.3001420  13.8749390   5.1799630  41.5714030
   3.5386960   7.6483270  34.6857690   4.3050230   7.5364630  35.2483120
   3.6161650   6.9521240  34.0334460   2.2333720   5.0808340  35.3690580
   2.3137310   4.1335850  35.4807980   3.1253470   5.4115220  35.4751240
  15.5630900  13.1372520  42.8007990  15.6878320  13.9603690  43.2731800
  16.4296460  12.9263250  42.4532140   3.0348430  15.2303730  42.4725120
   3.7710910  14.6819190  42.7433690   3.4189350  16.0959740  42.3331110
   2.0406710  14.4149800  51.6610700   2.8419440  14.7361850  52.0746100
   1.5258530  14.0545380  52.3830610   6.1450740  14.4034040  34.2950690
   6.9379350  14.6922870  33.8432480   5.6255090  13.9726210  33.6163170
  10.8771340  10.5229670  51.6086110  10.2709500  10.5461270  50.8681860
  10.5725450   9.7912710  52.1453360  12.3071710  14.2509960  50.2195520
  13.2593460  14.1667980  50.1695760  12.1599930  14.9151670  50.8929310
  15.1980910  13.6304170  35.7187430  14.9122420  13.2169310  34.9041610
  15.0000460  14.5591880  35.5987950   6.6628140   9.6237450  34.1593040
   6.5578780   9.0089800  34.8854420   6.4952360   9.1003340  33.3756050
   6.8142460   8.3094250  50.1382270   6.0488130   8.8779250  50.0536940
   6.9958420   8.0170460  49.2450500   9.9030870   8.6857480  34.7635030
   9.3540970   9.1326780  35.4077770  10.5250130   8.1806730  35.2872700
  13.9565810  10.0399580  50.6957290  14.6975280  10.3775340  50.1924750
  13.1938490  10.2091640  50.1427060   1.7927600   5.0452850  51.4996820
   1.8332940   4.7466720  52.4082050   2.6473100   5.4460460  51.3404340
   5.5705990   7.6448400  36.6600330   5.9922410   7.4788270  37.5031720
   5.6956830   6.8348630  36.1655470   3.7333410   3.6244950  49.4671310
   3.2029870   3.1335900  48.8394650   4.4021480   4.0529150  48.9329240
   8.0833630   6.6686010  33.9077430   8.6039290   5.9535030  33.5418580
   8.7302030   7.3071880  34.2077940  12.6311470   8.0914410  49.2312500
  13.0452490   8.2459490  50.0802920  11.6962470   8.2169630  49.3938280
  13.1033640   5.4310570  51.2351650  13.6854410   4.6762890  51.1472130
  13.2795410   5.9618010  50.4583130   7.3926700   8.0434890  47.2008430
   7.8114810   8.8867620  47.0284670   6.4735330   8.1806930  46.9715210
   9.7290600   5.7751070  48.5846270   9.8486810   5.1792210  49.3241110
  10.5884600   5.8120760  48.1647570  12.0678500   6.3288260  47.1608780
  11.5413720   6.8530880  46.5573920  12.4109840   6.9615650  47.7918510
   4.4664890   3.7181630  33.6058490   4.2653950   2.8548990  33.9671830
   4.2956940   3.6314990  32.6680090   5.2434120  14.3487900  48.3166160
   4.7055210  15.0733960  47.9974860   5.4968080  13.8718240  47.5263500
   6.4959370   2.3172420  49.8422090   7.0859060   2.0088270  50.5299910
   5.6779610   1.8452170  49.9981990   8.0996330  15.5839110  48.5752810
   8.0255030  16.4874250  48.8825180   7.1975170  15.2651010  48.5474880
   8.6481660  14.7497620  36.1979170   9.5432450  15.0882590  36.2197930
   8.6799290  14.0277030  35.5703450   2.2877820  10.1224670  34.4266170
   2.7252690  10.6654340  35.0823750   2.7725550   9.2971620  34.4362510
   4.0985540  11.2422710  39.5388400   3.7981080  11.1187680  40.4392310
   3.9923030  10.3831300  39.1304130  15.6276010  13.2801290  48.9045370
  15.0278000  13.3393850  48.1609290  15.7569910  12.3406270  49.0342220
  16.8677460  11.0219110  34.2415080  16.0370420  11.0895760  34.7122310
  17.0449290  11.9123230  33.9381940  16.3233920   7.7666590  36.7449280
  17.0852830   8.3363240  36.8508970  16.3388290   7.1993790  37.5157590
  17.3293890   8.6216690  41.5891210  17.7002720   7.8384010  41.1827180
  17.9695820   9.3105790  41.4108510  14.3127650  10.0053270  47.0021530
  13.4987490  10.4350430  47.2647320  14.7201850  10.6171680  46.3890580
  16.3753090   8.0600960  33.9021800  16.6501930   8.9679840  33.7741020
  16.1863830   7.9963490  34.8383790  16.2718430   5.9969950  38.8951230
  15.8962030   5.2297880  38.4632520  15.5421550   6.3792650  39.3826160
  15.6618050   5.1441470  48.5290750  15.4304140   4.9154220  47.6288700
  15.9222600   6.0641020  48.4835640  15.5469390   4.2227440  42.1958470
  16.0706870   3.7290090  41.5648640  16.1328810   4.3577800  42.9406040
  15.7259110   4.3067310  45.7178020  14.7761820   4.2730850  45.8323010
  15.9072120   5.2167420  45.4827790  15.0369360   3.4800790  38.1350880
  15.5328480   3.2471660  38.9199760  14.8385430   2.6412630  37.7188520
  16.4656520   2.1161740  40.6688560  16.3555800   1.9617780  41.6070830
  17.2264110   1.5882680  40.4263970  14.3703700  14.7571870  40.5289800
  14.9662770  14.4356440  39.8524220  14.6281850  14.2843690  41.3203070
   2.2766270  11.1889780  50.6780430   2.2335900  10.8182690  51.5594890
   2.4077280  12.1267350  50.8182250   5.9772300  12.7449370  46.2790150
   5.7363660  13.0123930  45.3920670   6.9174940  12.9155100  46.3341010
  17.2376460  14.7643750  47.0800790  16.7434740  15.1612620  46.3627920
  16.6289750  14.1392960  47.4738070   2.1154300  14.1352030  47.7978210
   1.5214620  14.0036730  48.5368250   2.1078140  13.2990170  47.3320310
  14.9215910  15.4067170  44.3587530  14.4618880  16.1582980  43.9845550
  14.2928370  14.6873640  44.3002330   5.3511630  13.7155410  43.5335660
   5.8676650  13.1042770  43.0083920   6.0009010  14.2184190  44.0246670
   8.0907130  14.6063900  44.3604640   8.3784940  14.3518200  43.4837650
   8.6030350  14.0541260  44.9510210   8.1579490  15.5280000  51.7272840
   9.0846800  15.2924270  51.7708800   8.1429920  16.3552000  51.2458870
  16.3924550  15.0705570  38.7247090  16.5676740  14.3843310  38.0808010
  15.6946120  15.5952620  38.3323760   4.2352200  15.4600410  36.2782400
   4.9671020  15.1759690  35.7306290   4.4945870  15.2213690  37.1681780
   3.3966990  11.5765140  36.2828730   2.7675870  12.0450240  36.8314560
   3.5114820  10.7314360  36.7174920  14.7257050  14.7549860  51.5513880
  15.5182370  14.2599090  51.3439840  15.0190200  15.4340000  52.1589490
  10.8516710   5.6270800  22.4329930  10.7710760   4.7125410  22.1621640
  10.4381130   6.1237870  21.7269640   8.9834750   7.4049820  24.3139200
   8.2076850   6.9250260  24.6037770   9.6347680   6.7255470  24.1395360
   3.0000580   7.7169630  25.1914960   2.1685460   7.4618340  25.5911470
   3.6081560   7.7880400  25.9272880  13.0042180  11.8110010  23.0938330
  12.5423710  11.0397250  23.4225500  13.8167730  11.8376080  23.5990780
   2.9801840  11.7509720  25.3872980   3.2829880  10.8607460  25.2083200
   3.7245430  12.3079940  25.1595230   9.2305490  14.0968020  22.7142320
   8.6116930  14.5525520  22.1436760  10.0857270  14.2519480  22.3132020
   8.4243740  10.0807010  24.3209360   8.3552020   9.1396950  24.1598490
   9.1863600  10.1708420  24.8931930   9.4548910   2.8877390  24.5478290
   9.8313730   2.0149270  24.4351960   9.3568420   3.2236090  23.6568730
   5.4261650   4.2289390  24.3420910   5.9339870   4.7270360  24.9825930
   5.9574890   3.4524590  24.1660270  17.5272580   2.3994580  28.0450260
  16.8224750   2.7876290  27.5265370  17.7930500   3.0944870  28.6471190
  10.0968840   8.9807260  20.1074230   9.4786110   9.4456710  19.5436950
  10.6092090   9.6734740  20.5243740   4.9600600   8.5083130  26.7857830
   4.6269980   9.1352050  27.4278900   5.1367280   9.0345010  26.0059500
  13.4734510   2.3228210  24.2534170  12.7690080   2.6113100  24.8337280
  13.8346670   3.1328320  23.8933730   4.1719700  10.4763930  28.6007010
   4.7893700  11.1515010  28.3191460   3.3112820  10.8851910  28.5094510
  15.0897290  11.9403340  26.5161650  14.4060810  12.6102450  26.5078320
  15.6291580  12.1383990  25.7506510  16.5421430   1.7683000  24.6443380
  15.5946340   1.8021980  24.7758810  16.8671420   2.5821950  25.0292740
  12.6256030  13.7847470  25.2306830  12.6383190  13.3809760  24.3629090
  12.0731250  14.5594760  25.1268260  13.9201450  10.5063690  20.3197000
  13.8097780   9.5638020  20.4446420  13.9169700  10.8679330  21.2059760
  12.0241470   8.6877310  26.5589440  12.4410260   8.4737420  25.7242900
  12.7481290   8.9450100  27.1298060   9.4621730   6.1329010  19.6759490
   8.5351010   6.0666390  19.9047960   9.6146550   7.0709140  19.5614730
   9.4490810   2.4046010  16.6726650   8.5094480   2.5659970  16.7579110
   9.7674070   3.1231690  16.1262640  15.9703570   7.0864530  26.6505680
  15.1422200   7.1557620  26.1755810  16.5654050   7.6718840  26.1821510
  13.4919020   7.6949310  20.1794740  12.8731440   7.3568860  19.5321040
  13.4743470   7.0509070  20.8873930  12.9345580   3.8733850  27.5960550
  12.5216760   4.6987560  27.8500540  12.2021530   3.2878890  27.4036910
   5.0678370   6.6593750  22.4579220   4.6635370   5.9471000  21.9625120
   5.1541490   6.3146990  23.3467260   5.5360070  10.3461310  24.6218430
   5.2388360   9.7406780  23.9426210   6.4859890  10.3838620  24.5107790
   3.7806990   3.4336960  26.2378260   4.3321580   3.5432300  25.4631510
   4.2950500   3.8074560  26.9533490  13.6245680  13.9193180  28.2841530
  13.1476240  14.7265370  28.0914140  12.9407470  13.2671510  28.4367740
   4.6278500  10.0843000  31.2726230   3.7307030  10.3082970  31.5199630
   4.6531370  10.2077940  30.3237630  11.6683720   6.9336120  17.1867490
  12.1077000   6.0958550  17.0405310  12.3812140   7.5665520  17.2731630
   3.4549720   6.9556320  29.8483600   3.3157490   7.8279120  30.2171000
   2.5731080   6.6129130  29.7031540   9.7779100  11.8732190  21.1548730
  10.2175010  12.6156520  20.7404120   9.7165990  12.1158760  22.0787690
   5.2530070  12.8978020  32.0568750   5.2245500  13.3020970  31.1897180
   5.0895040  11.9688380  31.8940350   1.7683000   5.5538730  19.9585870
   1.6480600   6.2800820  19.3467140   1.4583890   4.7841640  19.4813780
  17.2044890  13.6805120  33.3532920  17.6804610  14.1588010  34.0322000
  17.8252050  13.6122610  32.6278420  16.6078140  10.8717970  30.5132930
  16.7341200  10.6329850  29.5950110  16.6499520  10.0402510  30.9855010
  10.4694880  14.5745970  29.0827740  10.9839550  14.4853980  29.8850170
   9.6263960  14.9205670  29.3755650  12.4449280  14.8601310  18.5111740
  12.2850420  14.5704250  19.4093570  12.2795990  14.0841440  17.9756970
   4.9237660  14.6399840  20.2883360   4.7480140  13.7235380  20.0751160
   4.0693400  14.9987130  20.5281160  12.1475410  12.3688870  17.0709740
  11.4540570  12.3666160  16.4112020  12.8898270  11.9448190  16.6403910
  11.7125340  13.9951580  21.1458230  12.1682290  13.2140960  21.4596850
  12.0517860  14.7058400  21.6899410  16.4602150   2.9250430  31.4782670
  15.8446420   3.4330100  30.9498130  16.1398570   2.0248760  31.4208610
  13.5220980   2.9851270  30.0741520  12.6714570   2.6857020  30.3950590
  13.3622770   3.2293280  29.1625340  10.6170690   4.4853020  32.1740310
  10.9424100   3.6516770  31.8342540  11.4051020   5.0081540  32.3218640
   4.0260880   4.0207370  21.0690790   3.8001800   3.8044540  21.9737410
   3.2453410   4.4535830  20.7236760  11.2558640   4.0270740  19.6681440
  10.6567530   4.7506540  19.4845060  11.8038250   3.9647520  18.8857890
   6.4660090   4.9192950  31.7351060   6.3703690   3.9787680  31.5851460
   7.3092070   5.1408020  31.3399130   9.8623510   2.6634280  21.6984720
  10.2553080   2.9806480  20.8853410  10.2240360   1.7846160  21.8129240
  10.4478650   5.2540030  25.7935500   9.7159770   5.7626840  26.1425600
  10.0502990   4.4370010  25.4924280   6.8856040   1.9294230  24.1987990
   6.8892100   1.4884180  23.3492530   7.7807160   2.2511560  24.3059810
   6.9476190   2.9306310  17.1894750   7.0689010   2.8892790  18.1380570
   6.5624700   3.7930460  17.0341480   5.9597690   5.2407450  16.5878050
   5.3914590   4.7925700  15.9613960   6.6686690   5.6000230  16.0543200
   7.1864010   5.9896010  25.9453400   7.5534140   5.5154580  26.6914740
   6.9969070   6.8637580  26.2861740   4.9763380   5.0304650  28.2637610
   4.6720450   5.9096630  28.4887970   5.9309840   5.0904440  28.2995050
   3.5045170   9.2365640  18.8604460   2.7307430   8.6963260  18.7003180
   4.2339800   8.7172250  18.5222220  14.2633150   8.2331000  24.6530850
  14.9832270   8.7286290  24.2626960  14.0614970   7.5548890  24.0084720
   9.6451950   8.3040060  30.5399850   9.5789260   7.3835730  30.2857440
   9.0157090   8.4015500  31.2544490  12.4391480   3.9988610  17.0922400
  13.3271100   4.3105840  16.9173740  12.4096570   3.1260860  16.7002980
   3.5482570   8.9046020  22.4983270   4.0661240   8.1014280  22.4440160
   3.0966590   8.8425160  23.3400100   8.4352070  10.1712300  17.7710570
   8.7767770  10.9154530  17.2753890   7.6064780  10.4843420  18.1335400
   4.2340230   6.3291630  32.2948520   3.9340370   6.4748810  31.3976340
   5.0051470   5.7696920  32.2021910   9.5768680  11.1260630  30.2903650
   9.5913220  10.1941590  30.0722560   8.8693780  11.2120390  30.9293420
  14.7105750   5.3100450  16.5602260  14.6269470   5.7414670  15.7098700
  15.4299940   5.7698800  16.9929080  15.7879890   7.7667970  29.6372230
  15.0628080   8.3596750  29.4401620  16.3155350   7.7591510  28.8385600
  15.7393000  12.1642710  19.2884390  15.0969160  11.5098330  19.5628110
  15.3523660  12.5697800  18.5125060  11.3179480   9.4928140  23.1356080
  11.6703300   8.8956270  22.4757450  10.4341810   9.1672370  23.3064330
   7.4042760  10.2525830  20.5426490   8.0913890  10.7995040  20.9234080
   6.6175180  10.7966560  20.5776100   6.7069970   7.2571860  20.1551850
   7.1632750   8.0677110  20.3812040   6.3558180   6.9395000  20.9870340
   9.0102580  12.7678200  27.3844150   9.6544800  12.9737580  28.0617570
   9.3732020  12.0066600  26.9315000  10.2834660  10.7710550  26.1021600
  10.9256890  10.0703710  26.2153770  10.8084010  11.5508990  25.9218490
  14.1290380  11.0559170  15.8260740  13.9027960  10.3389610  16.4185380
  13.7386580  10.8071610  14.9882490  12.0572280  11.5705450  29.3057660
  12.3928520  12.1572140  29.9835580  11.1372620  11.4398160  29.5355450
  13.7106630   8.9731110  17.4874900  13.4228330   9.4343800  18.2752780
  14.5058800   8.5128880  17.7559120   7.8860860  11.6196780  32.4745720
   7.5657730  10.9006020  33.0191410   7.2119220  12.2951850  32.5481780
   5.9275030  12.4657230  17.4178870   5.9185130  13.1986920  16.8023380
   5.0073390  12.2188810  17.5105830   8.9134630  12.5285470  16.0804060
   9.0146610  12.3249460  15.1506040   8.0136370  12.2743750  16.2851840
   6.4360520   3.0865830  20.0627960   5.7276670   3.5552170  20.5041570
   6.7205000   2.4287840  20.6973150   8.0616450   4.5062530  28.0620490
   8.5601700   4.9808350  28.7272340   8.2039400   3.5826050  28.2690520
   7.5552740  15.0471790  20.7751730   7.8094240  15.0093180  19.8531100
   6.6065220  14.9205120  20.7679980  13.5605320   5.9663670  22.3510240
  12.6195460   5.9813900  22.5257930  13.8749390   5.1799630  22.7970540
   3.5386960   7.6483270  15.9114200   4.3050230   7.5364630  16.4739630
   3.6161650   6.9521240  15.2590970   2.2333720   5.0808340  16.5947090
   2.3137310   4.1335850  16.7064490   3.1253470   5.4115220  16.7007750
  15.5630900  13.1372520  24.0264500  15.6878320  13.9603690  24.4988310
  16.4296460  12.9263250  23.6788650   3.0348430  15.2303730  23.6981630
   3.7710910  14.6819190  23.9690200   3.4189350  16.0959740  23.5587620
   2.0406710  14.4149800  32.8867210   2.8419440  14.7361850  33.3002610
   1.5258530  14.0545380  33.6087120   6.1450740  14.4034040  15.5207200
   6.9379350  14.6922870  15.0688990   5.6255090  13.9726210  14.8419680
  10.8771340  10.5229670  32.8342620  10.2709500  10.5461270  32.0938370
  10.5725450   9.7912710  33.3709870  12.3071710  14.2509960  31.4452030
  13.2593460  14.1667980  31.3952270  12.1599930  14.9151670  32.1185820
  15.1980910  13.6304170  16.9443940  14.9122420  13.2169310  16.1298120
  15.0000460  14.5591880  16.8244460   6.6628140   9.6237450  15.3849550
   6.5578780   9.0089800  16.1110930   6.4952360   9.1003340  14.6012560
   6.8142460   8.3094250  31.3638780   6.0488130   8.8779250  31.2793450
   6.9958420   8.0170460  30.4707010   9.9030870   8.6857480  15.9891540
   9.3540970   9.1326780  16.6334280  10.5250130   8.1806730  16.5129210
  13.9565810  10.0399580  31.9213800  14.6975280  10.3775340  31.4181260
  13.1938490  10.2091640  31.3683570   1.7927600   5.0452850  32.7253330
   1.8332940   4.7466720  33.6338560   2.6473100   5.4460460  32.5660850
   5.5705990   7.6448400  17.8856840   5.9922410   7.4788270  18.7288230
   5.6956830   6.8348630  17.3911980   3.7333410   3.6244950  30.6927820
   3.2029870   3.1335900  30.0651160   4.4021480   4.0529150  30.1585750
   8.0833630   6.6686010  15.1333940   8.6039290   5.9535030  14.7675090
   8.7302030   7.3071880  15.4334450  12.6311470   8.0914410  30.4569010
  13.0452490   8.2459490  31.3059430  11.6962470   8.2169630  30.6194790
  13.1033640   5.4310570  32.4608160  13.6854410   4.6762890  32.3728640
  13.2795410   5.9618010  31.6839640   7.3926700   8.0434890  28.4264940
   7.8114810   8.8867620  28.2541180   6.4735330   8.1806930  28.1971720
   9.7290600   5.7751070  29.8102780   9.8486810   5.1792210  30.5497620
  10.5884600   5.8120760  29.3904080  12.0678500   6.3288260  28.3865290
  11.5413720   6.8530880  27.7830430  12.4109840   6.9615650  29.0175020
   4.4664890   3.7181630  14.8315000   4.2653950   2.8548990  15.1928340
   4.2956940   3.6314990  13.8936600   5.2434120  14.3487900  29.5422670
   4.7055210  15.0733960  29.2231370   5.4968080  13.8718240  28.7520010
   6.4959370   2.3172420  31.0678600   7.0859060   2.0088270  31.7556420
   5.6779610   1.8452170  31.2238500   8.0996330  15.5839110  29.8009320
   8.0255030  16.4874250  30.1081690   7.1975170  15.2651010  29.7731390
   8.6481660  14.7497620  17.4235680   9.5432450  15.0882590  17.4454440
   8.6799290  14.0277030  16.7959960   2.2877820  10.1224670  15.6522680
   2.7252690  10.6654340  16.3080260   2.7725550   9.2971620  15.6619020
   4.0985540  11.2422710  20.7644910   3.7981080  11.1187680  21.6648820
   3.9923030  10.3831300  20.3560640  15.6276010  13.2801290  30.1301880
  15.0278000  13.3393850  29.3865800  15.7569910  12.3406270  30.2598730
  16.8677460  11.0219110  15.4671590  16.0370420  11.0895760  15.9378820
  17.0449290  11.9123230  15.1638450  16.3233920   7.7666590  17.9705790
  17.0852830   8.3363240  18.0765480  16.3388290   7.1993790  18.7414100
  17.3293890   8.6216690  22.8147720  17.7002720   7.8384010  22.4083690
  17.9695820   9.3105790  22.6365020  14.3127650  10.0053270  28.2278040
  13.4987490  10.4350430  28.4903830  14.7201850  10.6171680  27.6147090
  16.3753090   8.0600960  15.1278310  16.6501930   8.9679840  14.9997530
  16.1863830   7.9963490  16.0640300  16.2718430   5.9969950  20.1207740
  15.8962030   5.2297880  19.6889030  15.5421550   6.3792650  20.6082670
  15.6618050   5.1441470  29.7547260  15.4304140   4.9154220  28.8545210
  15.9222600   6.0641020  29.7092150  15.5469390   4.2227440  23.4214980
  16.0706870   3.7290090  22.7905150  16.1328810   4.3577800  24.1662550
  15.7259110   4.3067310  26.9434530  14.7761820   4.2730850  27.0579520
  15.9072120   5.2167420  26.7084300  15.0369360   3.4800790  19.3607390
  15.5328480   3.2471660  20.1456270  14.8385430   2.6412630  18.9445030
  16.4656520   2.1161740  21.8945070  16.3555800   1.9617780  22.8327340
  17.2264110   1.5882680  21.6520480  14.3703700  14.7571870  21.7546310
  14.9662770  14.4356440  21.0780730  14.6281850  14.2843690  22.5459580
   2.2766270  11.1889780  31.9036940   2.2335900  10.8182690  32.7851400
   2.4077280  12.1267350  32.0438760   5.9772300  12.7449370  27.5046660
   5.7363660  13.0123930  26.6177180   6.9174940  12.9155100  27.5597520
  17.2376460  14.7643750  28.3057300  16.7434740  15.1612620  27.5884430
  16.6289750  14.1392960  28.6994580   2.1154300  14.1352030  29.0234720
   1.5214620  14.0036730  29.7624760   2.1078140  13.2990170  28.5576820
  14.9215910  15.4067170  25.5844040  14.4618880  16.1582980  25.2102060
  14.2928370  14.6873640  25.5258840   5.3511630  13.7155410  24.7592170
   5.8676650  13.1042770  24.2340430   6.0009010  14.2184190  25.2503180
   8.0907130  14.6063900  25.5861150   8.3784940  14.3518200  24.7094160
   8.6030350  14.0541260  26.1766720   8.1579490  15.5280000  32.9529350
   9.0846800  15.2924270  32.9965310   8.1429920  16.3552000  32.4715380
  16.3924550  15.0705570  19.9503600  16.5676740  14.3843310  19.3064520
  15.6946120  15.5952620  19.5580270   4.2352200  15.4600410  17.5038910
   4.9671020  15.1759690  16.9562800   4.4945870  15.2213690  18.3938290
   3.3966990  11.5765140  17.5085240   2.7675870  12.0450240  18.0571070
   3.5114820  10.7314360  17.9431430  14.7257050  14.7549860  32.7770390
  15.5182370  14.2599090  32.5696350  15.0190200  15.4340000  33.3846000
  10.8516710   5.6270800   3.6586440  10.7710760   4.7125410   3.3878150
  10.4381130   6.1237870   2.9526150   8.9834750   7.4049820   5.5395710
   8.2076850   6.9250260   5.8294280   9.6347680   6.7255470   5.3651870
   3.0000580   7.7169630   6.4171470   2.1685460   7.4618340   6.8167980
   3.6081560   7.7880400   7.1529390  13.0042180  11.8110010   4.3194840
  12.5423710  11.0397250   4.6482010  13.8167730  11.8376080   4.8247290
   2.9801840  11.7509720   6.6129490   3.2829880  10.8607460   6.4339710
   3.7245430  12.3079940   6.3851740   9.2305490  14.0968020   3.9398830
   8.6116930  14.5525520   3.3693270  10.0857270  14.2519480   3.5388530
   8.4243740  10.0807010   5.5465870   8.3552020   9.1396950   5.3855000
   9.1863600  10.1708420   6.1188440   9.4548910   2.8877390   5.7734800
   9.8313730   2.0149270   5.6608470   9.3568420   3.2236090   4.8825240
   5.4261650   4.2289390   5.5677420   5.9339870   4.7270360   6.2082440
   5.9574890   3.4524590   5.3916780  17.5272580   2.3994580   9.2706770
  16.8224750   2.7876290   8.7521880  17.7930500   3.0944870   9.8727700
   4.9600600   8.5083130   8.0114340   4.6269980   9.1352050   8.6535410
   5.1367280   9.0345010   7.2316010  13.4734510   2.3228210   5.4790680
  12.7690080   2.6113100   6.0593790  13.8346670   3.1328320   5.1190240
   4.1719700  10.4763930   9.8263520   4.7893700  11.1515010   9.5447970
   3.3112820  10.8851910   9.7351020  15.0897290  11.9403340   7.7418160
  14.4060810  12.6102450   7.7334830  15.6291580  12.1383990   6.9763020
  16.5421430   1.7683000   5.8699890  15.5946340   1.8021980   6.0015320
  16.8671420   2.5821950   6.2549250  12.6256030  13.7847470   6.4563340
  12.6383190  13.3809760   5.5885600  12.0731250  14.5594760   6.3524770
  12.0241470   8.6877310   7.7845950  12.4410260   8.4737420   6.9499410
  12.7481290   8.9450100   8.3554570  15.9703570   7.0864530   7.8762190
  15.1422200   7.1557620   7.4012320  16.5654050   7.6718840   7.4078020
  12.9345580   3.8733850   8.8217060  12.5216760   4.6987560   9.0757050
  12.2021530   3.2878890   8.6293420   5.0678370   6.6593750   3.6835730
   4.6635370   5.9471000   3.1881630   5.1541490   6.3146990   4.5723770
   5.5360070  10.3461310   5.8474940   5.2388360   9.7406780   5.1682720
   6.4859890  10.3838620   5.7364300   3.7806990   3.4336960   7.4634770
   4.3321580   3.5432300   6.6888020   4.2950500   3.8074560   8.1790000
  13.6245680  13.9193180   9.5098040  13.1476240  14.7265370   9.3170650
  12.9407470  13.2671510   9.6624250   4.6278500  10.0843000  12.4982740
   3.7307030  10.3082970  12.7456140   4.6531370  10.2077940  11.5494140
   3.4549720   6.9556320  11.0740110   3.3157490   7.8279120  11.4427510
   2.5731080   6.6129130  10.9288050   9.7779100  11.8732190   2.3805240
  10.2175010  12.6156520   1.9660630   9.7165990  12.1158760   3.3044200
   5.2530070  12.8978020  13.2825260   5.2245500  13.3020970  12.4153690
   5.0895040  11.9688380  13.1196860  17.2044890  13.6805120  14.5789430
  17.6804610  14.1588010  15.2578510  17.8252050  13.6122610  13.8534930
  16.6078140  10.8717970  11.7389440  16.7341200  10.6329850  10.8206620
  16.6499520  10.0402510  12.2111520  10.4694880  14.5745970  10.3084250
  10.9839550  14.4853980  11.1106680   9.6263960  14.9205670  10.6012160
  11.7125340  13.9951580   2.3714740  12.1682290  13.2140960   2.6853360
  12.0517860  14.7058400   2.9155920  16.4602150   2.9250430  12.7039180
  15.8446420   3.4330100  12.1754640  16.1398570   2.0248760  12.6465120
  13.5220980   2.9851270  11.2998030  12.6714570   2.6857020  11.6207100
  13.3622770   3.2293280  10.3881850  10.6170690   4.4853020  13.3996820
  10.9424100   3.6516770  13.0599050  11.4051020   5.0081540  13.5475150
   4.0260880   4.0207370   2.2947300   3.8001800   3.8044540   3.1993920
   3.2453410   4.4535830   1.9493270   6.4660090   4.9192950  12.9607570
   6.3703690   3.9787680  12.8107970   7.3092070   5.1408020  12.5655640
   9.8623510   2.6634280   2.9241230  10.2553080   2.9806480   2.1109920
  10.2240360   1.7846160   3.0385750  10.4478650   5.2540030   7.0192010
   9.7159770   5.7626840   7.3682110  10.0502990   4.4370010   6.7180790
   6.8856040   1.9294230   5.4244500   6.8892100   1.4884180   4.5749040
   7.7807160   2.2511560   5.5316320   7.1864010   5.9896010   7.1709910
   7.5534140   5.5154580   7.9171250   6.9969070   6.8637580   7.5118250
   4.9763380   5.0304650   9.4894120   4.6720450   5.9096630   9.7144480
   5.9309840   5.0904440   9.5251560  14.2633150   8.2331000   5.8787360
  14.9832270   8.7286290   5.4883470  14.0614970   7.5548890   5.2341230
   9.6451950   8.3040060  11.7656360   9.5789260   7.3835730  11.5113950
   9.0157090   8.4015500  12.4801000   3.5482570   8.9046020   3.7239780
   4.0661240   8.1014280   3.6696670   3.0966590   8.8425160   4.5656610
   4.2340230   6.3291630  13.5205030   3.9340370   6.4748810  12.6232850
   5.0051470   5.7696920  13.4278420   9.5768680  11.1260630  11.5160160
   9.5913220  10.1941590  11.2979070   8.8693780  11.2120390  12.1549930
  15.7879890   7.7667970  10.8628740  15.0628080   8.3596750  10.6658130
  16.3155350   7.7591510  10.0642110  11.3179480   9.4928140   4.3612590
  11.6703300   8.8956270   3.7013960  10.4341810   9.1672370   4.5320840
   7.4042760  10.2525830   1.7683000   8.0913890  10.7995040   2.1490590
   6.6175180  10.7966560   1.8032610   9.0102580  12.7678200   8.6100660
   9.6544800  12.9737580   9.2874080   9.3732020  12.0066600   8.1571510
  10.2834660  10.7710550   7.3278110  10.9256890  10.0703710   7.4410280
  10.8084010  11.5508990   7.1475000  12.0572280  11.5705450  10.5314170
  12.3928520  12.1572140  11.2092090  11.1372620  11.4398160  10.7611960
   7.8860860  11.6196780  13.7002230   7.5657730  10.9006020  14.2447920
   7.2119220  12.2951850  13.7738290   8.0616450   4.5062530   9.2877000
   8.5601700   4.9808350   9.9528850   8.2039400   3.5826050   9.4947030
  13.5605320   5.9663670   3.5766750  12.6195460   5.9813900   3.7514440
  13.8749390   5.1799630   4.0227050  15.5630900  13.1372520   5.2521010
  15.6878320  13.9603690   5.7244820  16.4296460  12.9263250   4.9045160
   3.0348430  15.2303730   4.9238140   3.7710910  14.6819190   5.1946710
   3.4189350  16.0959740   4.7844130   2.0406710  14.4149800  14.1123720
   2.8419440  14.7361850  14.5259120   1.5258530  14.0545380  14.8343630
  10.8771340  10.5229670  14.0599130  10.2709500  10.5461270  13.3194880
  10.5725450   9.7912710  14.5966380  12.3071710  14.2509960  12.6708540
  13.2593460  14.1667980  12.6208780  12.1599930  14.9151670  13.3442330
   6.8142460   8.3094250  12.5895290   6.0488130   8.8779250  12.5049960
   6.9958420   8.0170460  11.6963520  13.9565810  10.0399580  13.1470310
  14.6975280  10.3775340  12.6437770  13.1938490  10.2091640  12.5940080
   1.7927600   5.0452850  13.9509840   1.8332940   4.7466720  14.8595070
   2.6473100   5.4460460  13.7917360   3.7333410   3.6244950  11.9184330
   3.2029870   3.1335900  11.2907670   4.4021480   4.0529150  11.3842260
  12.6311470   8.0914410  11.6825520  13.0452490   8.2459490  12.5315940
  11.6962470   8.2169630  11.8451300  13.1033640   5.4310570  13.6864670
  13.6854410   4.6762890  13.5985150  13.2795410   5.9618010  12.9096150
   7.3926700   8.0434890   9.6521450   7.8114810   8.8867620   9.4797690
   6.4735330   8.1806930   9.4228230   9.7290600   5.7751070  11.0359290
   9.8486810   5.1792210  11.7754130  10.5884600   5.8120760  10.6160590
  12.0678500   6.3288260   9.6121800  11.5413720   6.8530880   9.0086940
  12.4109840   6.9615650  10.2431530   5.2434120  14.3487900  10.7679180
   4.7055210  15.0733960  10.4487880   5.4968080  13.8718240   9.9776520
   6.4959370   2.3172420  12.2935110   7.0859060   2.0088270  12.9812930
   5.6779610   1.8452170  12.4495010   8.0996330  15.5839110  11.0265830
   8.0255030  16.4874250  11.3338200   7.1975170  15.2651010  10.9987900
  15.6276010  13.2801290  11.3558390  15.0278000  13.3393850  10.6122310
  15.7569910  12.3406270  11.4855240  17.3293890   8.6216690   4.0404230
  17.7002720   7.8384010   3.6340200  17.9695820   9.3105790   3.8621530
  14.3127650  10.0053270   9.4534550  13.4987490  10.4350430   9.7160340
  14.7201850  10.6171680   8.8403600  15.6618050   5.1441470  10.9803770
  15.4304140   4.9154220  10.0801720  15.9222600   6.0641020  10.9348660
  15.5469390   4.2227440   4.6471490  16.0706870   3.7290090   4.0161660
  16.1328810   4.3577800   5.3919060  15.7259110   4.3067310   8.1691040
  14.7761820   4.2730850   8.2836030  15.9072120   5.2167420   7.9340810
  16.4656520   2.1161740   3.1201580  16.3555800   1.9617780   4.0583850
  17.2264110   1.5882680   2.8776990  14.3703700  14.7571870   2.9802820
  14.9662770  14.4356440   2.3037240  14.6281850  14.2843690   3.7716090
   2.2766270  11.1889780  13.1293450   2.2335900  10.8182690  14.0107910
   2.4077280  12.1267350  13.2695270   5.9772300  12.7449370   8.7303170
   5.7363660  13.0123930   7.8433690   6.9174940  12.9155100   8.7854030
  17.2376460  14.7643750   9.5313810  16.7434740  15.1612620   8.8140940
  16.6289750  14.1392960   9.9251090   2.1154300  14.1352030  10.2491230
   1.5214620  14.0036730  10.9881270   2.1078140  13.2990170   9.7833330
  14.9215910  15.4067170   6.8100550  14.4618880  16.1582980   6.4358570
  14.2928370  14.6873640   6.7515350   5.3511630  13.7155410   5.9848680
   5.8676650  13.1042770   5.4596940   6.0009010  14.2184190   6.4759690
   8.0907130  14.6063900   6.8117660   8.3784940  14.3518200   5.9350670
   8.6030350  14.0541260   7.4023230   8.1579490  15.5280000  14.1785860
   9.0846800  15.2924270  14.2221820   8.1429920  16.3552000  13.6971890
  14.7257050  14.7549860  14.0026900  15.5182370  14.2599090  13.7952860
  15.0190200  15.4340000  14.6102510
  72.5589960  69.3336180  85.0348000  90.0000000  90.0000000  90.0000000
