%VERSION  VERSION_STAMP = V0001.000  DATE = 06/07/24  17:00:10                  
%FLAG TITLE                                                                     
%FORMAT(20a4)                                                                   
AQ4                                                                             
%FLAG POINTERS                                                                  
%FORMAT(10I8)                                                                   
      52      10      23      31      49      40      75      67       0       0
     255       1      31      40      67      13      20      17      11       0
       0       0       0       0       0       0       0       0      52       0
       0
%FLAG ATOM_NAME                                                                 
%FORMAT(20a4)                                                                   
C1  C2  C3  C4  C5  C20 C21 C22 N1  H1  C6  C7  C8  C18 C9  C13 C17 N2  C19 N3  
O1  C10 C11 O2  C12 O3  C14 C15 O4  C16 H4  H9  H10 H11 H12 H13 H14 H15 H16 H17 
H18 H19 H20 H21 H22 H23 H24 H25 H   H3  H5  H6  
%FLAG CHARGE                                                                    
%FORMAT(5E16.8)                                                                 
 -2.39623245E+00 -2.29600980E+00  6.56002800E-01 -1.58534010E+00  2.37983238E+00
 -2.89734570E+00 -2.13200910E+00 -2.15023140E+00 -1.32166342E+01  7.92305604E+00
  1.27956991E+01 -5.25895578E+00 -1.71289620E+00  8.01052308E+00  1.20449403E+00
  1.86049683E+00 -3.41303679E+00 -1.30471668E+01  1.22617857E+01 -1.39582818E+01
 -6.30309357E+00  2.23040952E+00  2.21218722E+00 -7.73718858E+00  2.12654241E+00
 -6.23020437E+00  2.26685412E+00  1.73840742E+00 -7.68252168E+00  2.14476471E+00
  2.93379030E+00  2.73334500E+00  3.09779100E+00  1.00404873E+00  1.12431591E+00
  1.12431591E+00  8.32759110E-01  8.32759110E-01  6.26245784E-01  6.26245784E-01
  6.26245784E-01  1.37942811E+00  1.37942811E+00  7.14314160E-01  7.14314160E-01
  6.44468084E-01  6.44468084E-01  6.44468084E-01  3.05223525E+00  2.58756660E+00
  2.49645510E+00  2.42356590E+00
%FLAG ATOMIC_NUMBER                                                             
%FORMAT(10I8)                                                                   
       6       6       6       6       6       6       6       6       7       1
       6       6       6       6       6       6       6       7       6       7
       8       6       6       8       6       8       6       6       8       6
       1       1       1       1       1       1       1       1       1       1
       1       1       1       1       1       1       1       1       1       1
       1       1
%FLAG MASS                                                                      
%FORMAT(5E16.8)                                                                 
  1.20100000E+01  1.20100000E+01  1.20100000E+01  1.20100000E+01  1.20100000E+01
  1.20100000E+01  1.20100000E+01  1.20100000E+01  1.40100000E+01  1.00800000E+00
  1.20100000E+01  1.20100000E+01  1.20100000E+01  1.20100000E+01  1.20100000E+01
  1.20100000E+01  1.20100000E+01  1.40100000E+01  1.20100000E+01  1.40100000E+01
  1.60000000E+01  1.20100000E+01  1.20100000E+01  1.60000000E+01  1.20100000E+01
  1.60000000E+01  1.20100000E+01  1.20100000E+01  1.60000000E+01  1.20100000E+01
  1.00800000E+00  1.00800000E+00  1.00800000E+00  1.00800000E+00  1.00800000E+00
  1.00800000E+00  1.00800000E+00  1.00800000E+00  1.00800000E+00  1.00800000E+00
  1.00800000E+00  1.00800000E+00  1.00800000E+00  1.00800000E+00  1.00800000E+00
  1.00800000E+00  1.00800000E+00  1.00800000E+00  1.00800000E+00  1.00800000E+00
  1.00800000E+00  1.00800000E+00
%FLAG ATOM_TYPE_INDEX                                                           
%FORMAT(10I8)                                                                   
       1       1       2       2       2       2       2       2       3       4
       2       2       2       2       2       2       2       5       2       5
       6       7       7       6       7       6       7       7       6       7
       8       8       8       9      10      10      10      10      10      10
      10      10      10      10      10      10      10      10       8       8
       8       8
%FLAG NUMBER_EXCLUDED_ATOMS                                                     
%FORMAT(10I8)                                                                   
       5       8      10      10      11       9       5       4       9       3
      10      11      10      10      11      11       6       4       2       1
       9       7       9       8       5       8       7       9       8       5
       1       1       1       1       3       2       1       1       2       1
       1       3       2       1       1       2       1       1       1       1
       1       1
%FLAG NONBONDED_PARM_INDEX                                                      
%FORMAT(10I8)                                                                   
       1       2       4       7      11      16      22      29      37      46
       2       3       5       8      12      17      23      30      38      47
       4       5       6       9      13      18      24      31      39      48
       7       8       9      10      14      19      25      32      40      49
      11      12      13      14      15      20      26      33      41      50
      16      17      18      19      20      21      27      34      42      51
      22      23      24      25      26      27      28      35      43      52
      29      30      31      32      33      34      35      36      44      53
      37      38      39      40      41      42      43      44      45      54
      46      47      48      49      50      51      52      53      54      55
%FLAG RESIDUE_LABEL                                                             
%FORMAT(20a4)                                                                   
AQ4 
%FLAG RESIDUE_POINTER                                                           
%FORMAT(10I8)                                                                   
       1
%FLAG BOND_FORCE_CONSTANT                                                       
%FORMAT(5E16.8)                                                                 
  6.84970000E+02  3.92430000E+02  3.17410000E+02  3.54250000E+02  3.60690000E+02
  3.10840000E+02  5.29500000E+02  3.86490000E+02  3.43340000E+02  3.57590000E+02
  2.82270000E+02  2.28890000E+02  3.44220000E+02
%FLAG BOND_EQUIL_VALUE                                                          
%FORMAT(5E16.8)                                                                 
  1.21480000E+00  1.06660000E+00  1.43180000E+00  1.39860000E+00  1.08600000E+00
  1.40300000E+00  1.01200000E+00  1.33920000E+00  1.36880000E+00  1.08800000E+00
  1.42730000E+00  1.53540000E+00  1.09690000E+00
%FLAG ANGLE_FORCE_CONSTANT                                                      
%FORMAT(5E16.8)                                                                 
  5.42800000E+01  4.08900000E+01  6.28500000E+01  6.36700000E+01  4.49000000E+01
  6.71800000E+01  4.88000000E+01  7.79900000E+01  7.40100000E+01  8.31500000E+01
  6.81700000E+01  7.90000000E+01  8.82600000E+01  7.27600000E+01  5.01600000E+01
  7.74400000E+01  5.62000000E+01  4.32800000E+01  8.83300000E+01  3.56400000E+01
%FLAG ANGLE_EQUIL_VALUE                                                         
%FORMAT(5E16.8)                                                                 
  3.13443815E+00  3.13478721E+00  2.09875933E+00  2.09474507E+00  2.09230160E+00
  2.11411823E+00  2.02580453E+00  2.11900515E+00  2.04430503E+00  2.04622489E+00
  2.14570870E+00  2.07886256E+00  2.06629619E+00  2.22180509E+00  2.02091761E+00
  1.87832415E+00  1.92579712E+00  1.91270715E+00  1.98269488E+00  1.89455572E+00
%FLAG DIHEDRAL_FORCE_CONSTANT                                                   
%FORMAT(5E16.8)                                                                 
  0.00000000E+00  3.62500000E+00  1.05000000E+00  4.80000000E+00  1.66000000E+00
  3.83333333E-01  1.80000000E-01  9.00000000E-01  5.00000000E-01  2.50000000E-01
  0.00000000E+00  8.80000000E-01  8.00000000E-02  7.50000000E-01  3.37000000E-01
  1.55555556E-01  1.10000000E+00
%FLAG DIHEDRAL_PERIODICITY                                                      
%FORMAT(5E16.8)                                                                 
  2.00000000E+00  2.00000000E+00  2.00000000E+00  2.00000000E+00  2.00000000E+00
  3.00000000E+00  1.00000000E+00  2.00000000E+00  3.00000000E+00  1.00000000E+00
  3.00000000E+00  1.00000000E+00  2.00000000E+00  3.00000000E+00  3.00000000E+00
  3.00000000E+00  2.00000000E+00
%FLAG DIHEDRAL_PHASE                                                            
%FORMAT(5E16.8)                                                                 
  3.14159400E+00  3.14159400E+00  3.14159400E+00  3.14159400E+00  3.14159400E+00
  0.00000000E+00  0.00000000E+00  0.00000000E+00  0.00000000E+00  0.00000000E+00
  0.00000000E+00  3.14159400E+00  0.00000000E+00  0.00000000E+00  0.00000000E+00
  0.00000000E+00  3.14159400E+00
%FLAG SCEE_SCALE_FACTOR                                                         
%FORMAT(5E16.8)                                                                 
  1.20000000E+00  1.20000000E+00  1.20000000E+00  1.20000000E+00  1.20000000E+00
  1.20000000E+00  1.20000000E+00  1.20000000E+00  1.20000000E+00  1.20000000E+00
  1.20000000E+00  1.20000000E+00  1.20000000E+00  1.20000000E+00  1.20000000E+00
  1.20000000E+00  0.00000000E+00
%FLAG SCNB_SCALE_FACTOR                                                         
%FORMAT(5E16.8)                                                                 
  2.00000000E+00  2.00000000E+00  2.00000000E+00  2.00000000E+00  2.00000000E+00
  2.00000000E+00  2.00000000E+00  2.00000000E+00  2.00000000E+00  2.00000000E+00
  2.00000000E+00  2.00000000E+00  2.00000000E+00  2.00000000E+00  2.00000000E+00
  2.00000000E+00  0.00000000E+00
%FLAG SOLTY                                                                     
%FORMAT(5E16.8)                                                                 
  0.00000000E+00  0.00000000E+00  0.00000000E+00  0.00000000E+00  0.00000000E+00
  0.00000000E+00  0.00000000E+00  0.00000000E+00  0.00000000E+00  0.00000000E+00
  0.00000000E+00
%FLAG LENNARD_JONES_ACOEF                                                       
%FORMAT(5E16.8)                                                                 
  2.00671338E+06  1.18640578E+06  6.96551276E+05  1.39989391E+06  8.17329084E+05
  9.54790629E+05  3.37137075E+03  1.71458823E+03  1.79157166E+03  1.34728399E-01
  1.30700124E+06  7.69642101E+05  9.05243612E+05  2.01475241E+03  8.49322032E+05
  7.65280989E+05  4.46121722E+05  5.20510209E+05  9.46795083E+02  4.94433451E+05
  2.83662575E+05  1.43239677E+06  8.43969952E+05  9.93125065E+05  2.23577481E+03
  9.31115275E+05  5.42502534E+05  1.02073671E+06  1.32549375E+05  7.52549148E+04
  8.59636060E+04  9.04434904E+01  8.43518904E+04  4.65732396E+04  9.27554496E+04
  6.90855956E+03  9.28958515E+04  5.22195041E+04  5.91752946E+04  5.02830284E+01
  5.87815925E+04  3.19887757E+04  6.46910138E+04  4.56536476E+03  2.97255425E+03
  1.00303788E+05  5.63013422E+04  6.37258620E+04  5.24570081E+01  6.34160397E+04
  3.44374471E+04  6.97998263E+04  4.88692384E+03  3.17496391E+03  3.39005767E+03
%FLAG LENNARD_JONES_BCOEF                                                       
%FORMAT(5E16.8)                                                                 
  1.13185062E+03  7.71958727E+02  5.24668528E+02  1.01846332E+03  6.90283231E+02
  9.06156687E+02  2.32108730E+01  1.46824710E+01  1.82287422E+01  7.34107347E-02
  8.00430491E+02  5.44830041E+02  7.17661669E+02  1.57231024E+01  5.65406768E+02
  5.74027680E+02  3.88758656E+02  5.10021392E+02  1.01016461E+01  4.04310927E+02
  2.87011518E+02  8.66911122E+02  5.90251928E+02  7.77671659E+02  1.71355763E+01
  6.12468585E+02  4.38146883E+02  6.63431737E+02  1.63939471E+02  1.09570372E+02
  1.42233990E+02  2.14252117E+00  1.14599119E+02  7.98066064E+01  1.24325688E+02
  2.10929191E+01  1.37243835E+02  9.12729468E+01  1.18009316E+02  1.59752321E+00
  9.56653235E+01  6.61407978E+01  1.03827676E+02  1.71467049E+01  1.38359132E+01
  1.52041700E+02  1.01040256E+02  1.30560951E+02  1.73959275E+00  1.05935811E+02
  7.31636661E+01  1.14981426E+02  1.89134207E+01  1.52447987E+01  1.67944276E+01
%FLAG BONDS_INC_HYDROGEN                                                        
%FORMAT(10I8)                                                                   
       0     144       2       9      90       5      15     153       5      18
     150       5      21     147       5      24      27       7      36      93
       5      48      96       5      54      99      10      63     102      13
      63     105      13      66     108      13      66     111      13      72
     114      13      72     117      13      72     120      13      78     123
      13      78     126      13      81     129      13      81     132      13
      87     135      13      87     138      13      87     141      13
%FLAG BONDS_WITHOUT_HYDROGEN                                                    
%FORMAT(10I8)                                                                   
       0       3       1       3       6       3       6       9       4       6
      21       4       9      12       4      12      15       4      12      24
       6      15      18       4      18      21       4      24      30       6
      30      33       4      30      57       8      33      36       4      33
      39       4      36      42       4      39      48       4      39      51
       8      42      45       4      42      60       9      45      48       4
      45      75       9      51      54       8      54      57       8      60
      63      11      63      66      12      66      69      11      69      72
      11      75      78      11      78      81      12      81      84      11
      84      87      11
%FLAG ANGLES_INC_HYDROGEN                                                       
%FORMAT(10I8)                                                                   
       3       0     144       2       6       9      90       5       6      21
     147       5      12       9      90       5      12      15     153       5
      12      24      27       7      15      18     150       5      18      15
     153       5      18      21     147       5      21      18     150       5
      27      24      30       7      33      36      93       5      39      48
      96       5      42      36      93       5      45      48      96       5
      51      54      99      15      57      54      99      15      60      63
     102      17      60      63     105      17      63      66     108      18
      63      66     111      18      66      63     102      18      66      63
     105      18      69      66     108      17      69      66     111      17
      69      72     114      17      69      72     117      17      69      72
     120      17      75      78     123      17      75      78     126      17
      78      81     129      18      78      81     132      18      81      78
     123      18      81      78     126      18      84      81     129      17
      84      81     132      17      84      87     135      17      84      87
     138      17      84      87     141      17     102      63     105      20
     108      66     111      20     114      72     117      20     114      72
     120      20     117      72     120      20     123      78     126      20
     129      81     132      20     135      87     138      20     135      87
     141      20     138      87     141      20
%FLAG ANGLES_WITHOUT_HYDROGEN                                                   
%FORMAT(10I8)                                                                   
       0       3       6       1       3       6       9       3       3       6
      21       3       6       9      12       4       6      21      18       4
       9       6      21       4       9      12      15       4       9      12
      24       6      12      15      18       4      12      24      30       8
      15      12      24       6      15      18      21       4      24      30
      33       6      24      30      57       9      30      33      36       4
      30      33      39       4      30      57      54      10      33      30
      57      11      33      36      42       4      33      39      48       4
      33      39      51      11      36      33      39       4      36      42
      45       4      36      42      60      12      39      48      45       4
      39      51      54      10      42      45      48       4      42      45
      75      12      42      60      63      13      45      42      60      12
      45      75      78      13      48      39      51      11      48      45
      75      12      51      54      57      14      60      63      66      16
      63      66      69      16      66      69      72      19      75      78
      81      16      78      81      84      16      81      84      87      19
%FLAG DIHEDRALS_INC_HYDROGEN                                                    
%FORMAT(10I8)                                                                   
       3       6       9      90       2       3       6      21     147       2
     144       0       3       6       1       6      21      18     150       2
       9       6      21     147       2       9      12      15     153       2
       9      12      24      27       3      12      15      18     150       2
      15      12       9      90       2      15      12      24      27       3
      15      18      21     147       2      21       6       9      90       2
      21      18      15     153       2      24      12       9      90       2
      24      12      15     153       2      27      24      30      33       3
      27      24      30      57       3      30      33      36      93       2
      30      57      54      99       4      33      39      48      96       2
      39      33      36      93       2      39      51      54      99       4
      42      45      48      96       2      42      60      63     102       6
      42      60      63     105       6      45      42      36      93       2
      45      75      78     123       6      45      75      78     126       6
      51      39      48      96       2      60      42      36      93       2
      60      63      66     108      10      60      63     -66     108      11
      60      63      66     111      10      60      63     -66     111      11
      66      69      72     114      15      66      69      72     117      15
      66      69      72     120      15      69      66      63     102      10
      69      66     -63     102      11      69      66      63     105      10
      69      66     -63     105      11      72      69      66     108      15
      72      69      66     111      15      75      45      48      96       2
      75      78      81     129      10      75      78     -81     129      11
      75      78      81     132      10      75      78     -81     132      11
      81      84      87     135      15      81      84      87     138      15
      81      84      87     141      15      84      81      78     123      10
      84      81     -78     123      11      84      81      78     126      10
      84      81     -78     126      11      87      84      81     129      15
      87      84      81     132      15     102      63      66     108      16
     102      63      66     111      16     105      63      66     108      16
     105      63      66     111      16     123      78      81     129      16
     123      78      81     132      16     126      78      81     129      16
     126      78      81     132      16     147      21      18     150       2
     150      18      15     153       2       6      12      -9     -90      17
      12      18     -15    -153      17      15      21     -18    -150      17
       6      18     -21    -147      17      12      30     -24     -27      17
      33      42     -36     -93      17      39      45     -48     -96      17
      99      51     -54     -57      17
%FLAG DIHEDRALS_WITHOUT_HYDROGEN                                                
%FORMAT(10I8)                                                                   
       0       3       6       9       1       0       3       6      21       1
       3       6       9      12       2       3       6      21      18       2
       6       9      12      15       2       6       9      12      24       2
       6      21     -18      15       2       9       6      21      18       2
       9      12     -15      18       2       9      12      24      30       3
      12       9       6      21       2      12      15     -18      21       2
      12      24      30      33       3      12      24      30      57       3
      15      12      24      30       3      18      15      12      24       2
      24      30      33      36       2      24      30      33      39       2
      24      30      57      54       4      30      33      36      42       2
      30      33      39      48       2      30      33      39      51       2
      30      57     -54      51       4      33      30      57      54       4
      33      36      42      45       2      33      36      42      60       2
      33      39     -48      45       2      33      39     -51      54       4
      36      33      30      57       2      36      33      39      48       2
      36      33      39      51       2      36      42     -45      48       2
      36      42      45      75       2      36      42      60      63       5
      39      33      30      57       2      39      33      36      42       2
      39      48     -45      42       2      39      48      45      75       2
      39      51     -54      57       4      42      45      75      78       5
      42      60      63      66       6      45      42      60      63       5
      45      48      39      51       2      45      75      78      81       6
      48      39      51      54       4      48      45      42      60       2
      48      45      75      78       5      60      42      45      75       2
      60      63      66      69       7      60      63     -66      69       8
      60      63     -66      69       9      63      66      69      72      12
      63      66     -69      72      13      63      66     -69      72      14
      75      78      81      84       7      75      78     -81      84       8
      75      78     -81      84       9      78      81      84      87      12
      78      81     -84      87      13      78      81     -84      87      14
       9      21      -6      -3      17       9      15     -12     -24      17
      33      57     -30     -24      17      30      36     -33     -39      17
      33      48     -39     -51      17      36      45     -42     -60      17
      42      48     -45     -75      17
%FLAG EXCLUDED_ATOMS_LIST                                                       
%FORMAT(10I8)                                                                   
       2       3       4       8      49       3       4       5       7       8
      31      49      50       4       5       6       7       8       9      31
      49      50      51       5       6       7       8       9      10      11
      31      50      52       6       7       8       9      10      11      12
      20      31      51      52       7       8       9      10      11      31
      50      51      52       8       9      50      51      52      31      50
      51      52      10      11      12      13      14      19      20      31
      52      11      12      20      12      13      14      15      17      18
      19      20      32      34      13      14      15      16      17      18
      19      20      21      32      33      14      15      16      17      18
      20      21      22      26      32      15      16      17      18      19
      20      26      32      33      34      16      17      21      22      23
      26      27      32      33      35      36      17      18      21      22
      26      27      28      32      33      42      43      18      19      21
      26      27      33      19      20      33      34      20      34      34
      22      23      24      26      32      35      36      37      38      23
      24      25      35      36      37      38      24      25      35      36
      37      38      39      40      41      25      35      36      37      38
      39      40      41      37      38      39      40      41      27      28
      29      33      42      43      44      45      28      29      30      42
      43      44      45      29      30      42      43      44      45      46
      47      48      30      42      43      44      45      46      47      48
      44      45      46      47      48       0       0       0       0      36
      37      38      37      38      38       0      40      41      41       0
      43      44      45      44      45      45       0      47      48      48
       0       0      51      52       0
%FLAG HBOND_ACOEF                                                               
%FORMAT(5E16.8)                                                                 

%FLAG HBOND_BCOEF                                                               
%FORMAT(5E16.8)                                                                 

%FLAG HBCUT                                                                     
%FORMAT(5E16.8)                                                                 

%FLAG AMBER_ATOM_TYPE                                                           
%FORMAT(20a4)                                                                   
c1  cg  ca  ca  ca  ca  ca  ca  nh  hn  ca  ca  ca  ca  ca  ca  ca  nb  ca  nb  
os  c3  c3  os  c3  os  c3  c3  os  c3  ha  ha  ha  h5  h1  h1  h1  h1  h1  h1  
h1  h1  h1  h1  h1  h1  h1  h1  ha  ha  ha  ha  
%FLAG TREE_CHAIN_CLASSIFICATION                                                 
%FORMAT(20a4)                                                                   
BLA BLA BLA BLA BLA BLA BLA BLA BLA BLA BLA BLA BLA BLA BLA BLA BLA BLA BLA BLA 
BLA BLA BLA BLA BLA BLA BLA BLA BLA BLA BLA BLA BLA BLA BLA BLA BLA BLA BLA BLA 
BLA BLA BLA BLA BLA BLA BLA BLA BLA BLA BLA BLA 
%FLAG JOIN_ARRAY                                                                
%FORMAT(10I8)                                                                   
       0       0       0       0       0       0       0       0       0       0
       0       0       0       0       0       0       0       0       0       0
       0       0       0       0       0       0       0       0       0       0
       0       0       0       0       0       0       0       0       0       0
       0       0       0       0       0       0       0       0       0       0
       0       0
%FLAG IROTAT                                                                    
%FORMAT(10I8)                                                                   
       0       0       0       0       0       0       0       0       0       0
       0       0       0       0       0       0       0       0       0       0
       0       0       0       0       0       0       0       0       0       0
       0       0       0       0       0       0       0       0       0       0
       0       0       0       0       0       0       0       0       0       0
       0       0
%FLAG RADIUS_SET                                                                
%FORMAT(1a80)                                                                   
modified Bondi radii (mbondi)                                                   
%FLAG RADII                                                                     
%FORMAT(5E16.8)                                                                 
  1.70000000E+00  1.70000000E+00  1.70000000E+00  1.70000000E+00  1.70000000E+00
  1.70000000E+00  1.70000000E+00  1.70000000E+00  1.55000000E+00  1.30000000E+00
  1.70000000E+00  1.70000000E+00  1.70000000E+00  1.70000000E+00  1.70000000E+00
  1.70000000E+00  1.70000000E+00  1.55000000E+00  1.70000000E+00  1.55000000E+00
  1.50000000E+00  1.70000000E+00  1.70000000E+00  1.50000000E+00  1.70000000E+00
  1.50000000E+00  1.70000000E+00  1.70000000E+00  1.50000000E+00  1.70000000E+00
  1.30000000E+00  1.30000000E+00  1.30000000E+00  1.30000000E+00  1.30000000E+00
  1.30000000E+00  1.30000000E+00  1.30000000E+00  1.30000000E+00  1.30000000E+00
  1.30000000E+00  1.30000000E+00  1.30000000E+00  1.30000000E+00  1.30000000E+00
  1.30000000E+00  1.30000000E+00  1.30000000E+00  1.30000000E+00  1.30000000E+00
  1.30000000E+00  1.30000000E+00
%FLAG SCREEN                                                                    
%FORMAT(5E16.8)                                                                 
  7.20000000E-01  7.20000000E-01  7.20000000E-01  7.20000000E-01  7.20000000E-01
  7.20000000E-01  7.20000000E-01  7.20000000E-01  7.90000000E-01  8.50000000E-01
  7.20000000E-01  7.20000000E-01  7.20000000E-01  7.20000000E-01  7.20000000E-01
  7.20000000E-01  7.20000000E-01  7.90000000E-01  7.20000000E-01  7.90000000E-01
  8.50000000E-01  7.20000000E-01  7.20000000E-01  8.50000000E-01  7.20000000E-01
  8.50000000E-01  7.20000000E-01  7.20000000E-01  8.50000000E-01  7.20000000E-01
  8.50000000E-01  8.50000000E-01  8.50000000E-01  8.50000000E-01  8.50000000E-01
  8.50000000E-01  8.50000000E-01  8.50000000E-01  8.50000000E-01  8.50000000E-01
  8.50000000E-01  8.50000000E-01  8.50000000E-01  8.50000000E-01  8.50000000E-01
  8.50000000E-01  8.50000000E-01  8.50000000E-01  8.50000000E-01  8.50000000E-01
  8.50000000E-01  8.50000000E-01
%FLAG IPOL                                                                      
%FORMAT(1I8)                                                                    
       0
