AQ4
    52
  29.1130000  -3.4580000  53.1250000  28.7590000  -2.2160000  53.2820000
  28.3300000  -0.9890000  53.4470000  26.9120000  -0.7500000  53.5200000
  26.4110000   0.5050000  53.6240000  27.2740000   1.6610000  53.5350000
  28.6140000   1.5110000  53.5060000  29.3260000   0.1620000  53.6200000
  25.0330000   0.7230000  53.8060000  24.6650000   1.6420000  53.5210000
  24.1460000  -0.1590000  54.4270000  22.7410000  -0.0070000  54.2380000
  22.1440000   0.9720000  53.4050000  21.9220000  -0.9180000  54.9300000
  20.7680000   1.0170000  53.2580000  19.9540000   0.0610000  53.9260000
  20.5250000  -0.8690000  54.7710000  22.4870000  -1.8760000  55.7360000
  23.7840000  -1.9320000  55.8440000  24.6380000  -1.0880000  55.2130000
  20.1850000   2.0050000  52.4730000  18.7780000   2.0000000  52.0760000
  18.4210000   3.4310000  51.6300000  17.0760000   3.6940000  52.0260000
  16.4850000   4.8050000  51.3710000  18.5840000  -0.0380000  53.7830000
  17.7910000  -1.1300000  53.2480000  17.9810000  -2.2830000  54.2440000
  17.7250000  -3.4630000  53.5030000  16.6940000  -4.2610000  54.0610000
  26.2260000  -1.5970000  53.4910000  22.7700000   1.6920000  52.8780000
  19.8910000  -1.5680000  55.3170000  24.2100000  -2.7060000  56.4820000
  18.6260000   1.3040000  51.2510000  18.1540000   1.7060000  52.9200000
  19.0930000   4.1450000  52.1060000  18.5100000   3.5140000  50.5470000
  15.4640000   4.9370000  51.7280000  16.4730000   4.6290000  50.2950000
  17.0630000   5.7040000  51.5860000  16.7400000  -0.8460000  53.1860000
  18.1500000  -1.4150000  52.2590000  19.0000000  -2.2890000  54.6310000
  17.2780000  -2.1920000  55.0720000  16.5480000  -5.1490000  53.4460000
  15.7680000  -3.6870000  54.0950000  16.9730000  -4.5610000  55.0710000
  29.3830000  -4.4070000  53.0050000  30.3370000   0.0440000  53.7900000
  29.1940000   2.3580000  53.4000000  26.8630000   2.6070000  53.4930000
