1N1
    59
  11.2020000 -34.2970000  -9.2250000  10.4160000 -35.3760000  -9.1140000
  12.5600000 -35.5720000  -7.9450000  12.3830000 -34.3970000  -8.5780000
  11.1750000 -36.5390000  -8.1730000  13.6470000 -35.8860000  -7.2350000
  13.6780000 -36.8630000  -6.3250000  14.8530000 -37.5690000  -6.0940000
  14.8260000 -38.5870000  -5.1350000  13.6690000 -38.8660000  -4.5020000
  12.5460000 -38.1700000  -4.7390000  11.2600000 -38.4910000  -3.9700000
  12.5630000 -37.1800000  -5.6430000  15.9400000 -39.3870000  -4.8020000
  16.4560000 -39.2890000  -3.4100000  17.9550000 -39.0910000  -3.4370000
  18.5810000 -40.1280000  -4.2690000  18.1030000 -40.1180000  -5.6720000
  16.5900000 -40.3230000  -5.7350000  20.0320000 -39.8250000  -4.2000000
  20.6280000 -39.5100000  -5.5800000  20.3380000 -38.1310000  -5.9070000
  19.9170000 -37.6540000  -5.0710000   9.0320000 -35.5580000  -9.7200000
   8.5240000 -34.4930000 -10.3410000   9.0780000 -33.5780000 -10.3810000
   8.4380000 -36.6290000  -9.5950000   7.3070000 -34.5740000 -10.9190000
   6.1620000 -34.1200000 -10.2400000   4.9030000 -34.2170000 -10.8450000
   6.2870000 -33.5470000  -8.8300000   4.7780000 -34.7400000 -12.1280000
   5.9210000 -35.1830000 -12.8090000   7.1750000 -35.1030000 -12.1970000
   8.5970000 -35.6430000 -13.0270000  10.9120000 -33.4120000  -9.7910000
  14.5420000 -35.3240000  -7.4050000  15.7660000 -37.3370000  -6.6420000
  10.4630000 -37.8240000  -4.2990000  11.4310000 -38.3530000  -2.9020000
  10.9700000 -39.5240000  -4.1610000  15.9870000 -38.4420000  -2.9080000
  16.2210000 -40.2070000  -2.8710000  18.1820000 -38.1090000  -3.8520000
  18.3470000 -39.1570000  -2.4220000  18.3520000 -39.1590000  -6.1270000
  18.5950000 -40.9200000  -6.2220000  16.3480000 -41.3480000  -5.4520000
  16.2370000 -40.1320000  -6.7490000  20.1790000 -38.9630000  -3.5500000
  20.5510000 -40.6880000  -3.7830000  21.7070000 -39.6620000  -5.5570000
  20.1840000 -40.1660000  -6.3290000   4.0160000 -33.8810000 -10.3080000
   5.3020000 -33.2500000  -8.4690000   6.9440000 -32.6780000  -8.8480000
   6.7040000 -34.3040000  -8.1650000   3.7980000 -34.8050000 -12.6010000
   5.8310000 -35.5900000 -13.8160000
