%VERSION  VERSION_STAMP = V0001.000  DATE = 06/07/24  16:52:20                  
%FLAG TITLE                                                                     
%FORMAT(20a4)                                                                   
1N1                                                                             
%FLAG POINTERS                                                                  
%FORMAT(10I8)                                                                   
      59      16      26      36      57      50      94      74       0       0
     312       1      36      50      74      25      45      24      20       0
       0       0       0       0       0       0       0       0      59       0
       0
%FLAG ATOM_NAME                                                                 
%FORMAT(20a4)                                                                   
C1  C2  C   N1  S   N   C11 C12 C13 N3  C14 C15 N4  N5  C16 C17 N6  C18 C19 C20 
C21 O1  H3  C3  N2  H2  O   C4  C9  C8  C10 C7  C6  C5  Cl  H4  H5  H6  H7  H8  
H9  H10 H11 H12 H13 H14 H15 H16 H17 H18 H19 H20 H21 H22 H23 H24 H25 H26 H27 
%FLAG CHARGE                                                                    
%FORMAT(5E16.8)                                                                 
  7.25611986E+00 -6.74225100E+00  1.07748460E+01 -1.28284992E+01  2.83721211E+00
 -1.48438856E+01  1.26863653E+01 -8.28385758E+00  1.27774768E+01 -1.41222825E+01
  1.31801896E+01 -2.54018862E+00 -1.45778400E+01 -1.34535241E+01  3.54059289E+00
  2.93925699E+00 -1.33496570E+01  2.93925699E+00  3.54059289E+00  2.52925524E+00
  1.62907362E+00 -1.08750686E+01  7.25247540E+00  1.31145893E+01 -8.47519173E+00
  5.80380255E+00 -1.07712015E+01  9.22048380E-01 -7.89025590E-01 -2.24134290E+00
 -1.16258274E+00 -2.29600980E+00 -2.16845370E+00 -1.56711780E-01 -1.86596352E+00
  8.21825730E-01  8.45150274E+00  2.84267880E+00  1.20935938E+00  1.20935938E+00
  1.20935938E+00  9.96759810E-01  9.96759810E-01  8.55536985E-01  8.55536985E-01
  8.55536985E-01  8.55536985E-01  9.96759810E-01  9.96759810E-01  1.01498211E+00
  1.01498211E+00  9.23870610E-01  9.23870610E-01  2.51467740E+00  1.02713638E+00
  1.02713638E+00  1.02713638E+00  2.51467740E+00  2.67867810E+00
%FLAG ATOMIC_NUMBER                                                             
%FORMAT(10I8)                                                                   
       6       6       6       7      16       7       6       6       6       7
       6       6       7       7       6       6       7       6       6       6
       6       8       1       6       7       1       8       6       6       6
       6       6       6       6      17       1       1       1       1       1
       1       1       1       1       1       1       1       1       1       1
       1       1       1       1       1       1       1       1       1
%FLAG MASS                                                                      
%FORMAT(5E16.8)                                                                 
  1.20100000E+01  1.20100000E+01  1.20100000E+01  1.40100000E+01  3.20600000E+01
  1.40100000E+01  1.20100000E+01  1.20100000E+01  1.20100000E+01  1.40100000E+01
  1.20100000E+01  1.20100000E+01  1.40100000E+01  1.40100000E+01  1.20100000E+01
  1.20100000E+01  1.40100000E+01  1.20100000E+01  1.20100000E+01  1.20100000E+01
  1.20100000E+01  1.60000000E+01  1.00800000E+00  1.20100000E+01  1.40100000E+01
  1.00800000E+00  1.60000000E+01  1.20100000E+01  1.20100000E+01  1.20100000E+01
  1.20100000E+01  1.20100000E+01  1.20100000E+01  1.20100000E+01  3.54500000E+01
  1.00800000E+00  1.00800000E+00  1.00800000E+00  1.00800000E+00  1.00800000E+00
  1.00800000E+00  1.00800000E+00  1.00800000E+00  1.00800000E+00  1.00800000E+00
  1.00800000E+00  1.00800000E+00  1.00800000E+00  1.00800000E+00  1.00800000E+00
  1.00800000E+00  1.00800000E+00  1.00800000E+00  1.00800000E+00  1.00800000E+00
  1.00800000E+00  1.00800000E+00  1.00800000E+00  1.00800000E+00
%FLAG ATOM_TYPE_INDEX                                                           
%FORMAT(10I8)                                                                   
       1       1       1       2       3       4       1       1       1       2
       1       5       2       4       5       5       6       5       5       5
       5       7       8       1       9      10      11       1       1       1
       5       1       1       1      12      13      10      14      15      15
      15      16      16      16      16      16      16      16      16      16
      16      16      16      14      15      15      15      14      14
%FLAG NUMBER_EXCLUDED_ATOMS                                                     
%FORMAT(10I8)                                                                   
       9      10       9       6       7       7       9       9      14      10
       6       4       5      14      11      13      17      11       7      11
       6       5       2       7       9       4       1      12      11      10
       6       6       5       3       1       1       1       1       2       1
       1       3       2       1       1       3       2       1       1       3
       2       1       1       1       2       1       1       1       1
%FLAG NONBONDED_PARM_INDEX                                                      
%FORMAT(10I8)                                                                   
       1       2       4       7      11      16      22      29      37      46
      56      67      79      92     106     121       2       3       5       8
      12      17      23      30      38      47      57      68      80      93
     107     122       4       5       6       9      13      18      24      31
      39      48      58      69      81      94     108     123       7       8
       9      10      14      19      25      32      40      49      59      70
      82      95     109     124      11      12      13      14      15      20
      26      33      41      50      60      71      83      96     110     125
      16      17      18      19      20      21      27      34      42      51
      61      72      84      97     111     126      22      23      24      25
      26      27      28      35      43      52      62      73      85      98
     112     127      29      30      31      32      33      34      35      36
      44      53      63      74      86      99     113     128      37      38
      39      40      41      42      43      44      45      54      64      75
      87     100     114     129      46      47      48      49      50      51
      52      53      54      55      65      76      88     101     115     130
      56      57      58      59      60      61      62      63      64      65
      66      77      89     102     116     131      67      68      69      70
      71      72      73      74      75      76      77      78      90     103
     117     132      79      80      81      82      83      84      85      86
      87      88      89      90      91     104     118     133      92      93
      94      95      96      97      98      99     100     101     102     103
     104     105     119     134     106     107     108     109     110     111
     112     113     114     115     116     117     118     119     120     135
     121     122     123     124     125     126     127     128     129     130
     131     132     133     134     135     136
%FLAG RESIDUE_LABEL                                                             
%FORMAT(20a4)                                                                   
1N1 
%FLAG RESIDUE_POINTER                                                           
%FORMAT(10I8)                                                                   
       1
%FLAG BOND_FORCE_CONSTANT                                                       
%FORMAT(5E16.8)                                                                 
  3.86240000E+02  3.56030000E+02  3.68720000E+02  2.26530000E+02  2.78120000E+02
  4.17790000E+02  3.23920000E+02  3.10840000E+02  5.29500000E+02  3.54250000E+02
  3.86490000E+02  3.60690000E+02  2.43910000E+02  3.45250000E+02  2.56920000E+02
  2.28890000E+02  3.44220000E+02  2.55850000E+02  2.85150000E+02  5.35510000E+02
  3.17460000E+02  5.90600000E+02  5.27300000E+02  2.91110000E+02  1.87980000E+02
%FLAG BOND_EQUIL_VALUE                                                          
%FORMAT(5E16.8)                                                                 
  1.37300000E+00  1.36290000E+00  1.08090000E+00  1.76220000E+00  1.47280000E+00
  1.31710000E+00  1.39070000E+00  1.40300000E+00  1.01200000E+00  1.39860000E+00
  1.33920000E+00  1.08600000E+00  1.51470000E+00  1.09620000E+00  1.46130000E+00
  1.53540000E+00  1.09690000E+00  1.46260000E+00  1.42420000E+00  9.72500000E-01
  1.39670000E+00  1.21900000E+00  1.01300000E+00  1.42280000E+00  1.75720000E+00
%FLAG ANGLE_FORCE_CONSTANT                                                      
%FORMAT(5E16.8)                                                                 
  6.58400000E+01  6.21000000E+01  8.60800000E+01  6.97000000E+01  4.39500000E+01
  1.01890000E+02  6.79300000E+01  7.83100000E+01  7.84600000E+01  4.93000000E+01
  4.85300000E+01  6.93200000E+01  7.47100000E+01  6.23300000E+01  6.89100000E+01
  6.71800000E+01  7.40100000E+01  4.88000000E+01  6.36700000E+01  4.49000000E+01
  8.31500000E+01  6.81700000E+01  7.69400000E+01  6.67000000E+01  7.27600000E+01
  4.36100000E+01  6.48100000E+01  4.79700000E+01  7.64300000E+01  6.49000000E+01
  4.32800000E+01  7.77500000E+01  4.78400000E+01  7.67900000E+01  6.51300000E+01
  5.62900000E+01  4.87000000E+01  7.72100000E+01  8.66800000E+01  6.69600000E+01
  4.80000000E+01  6.07400000E+01  6.40600000E+01  3.58000000E+01  3.56400000E+01
%FLAG ANGLE_EQUIL_VALUE                                                         
%FORMAT(5E16.8)                                                                 
  1.97833156E+00  2.11743436E+00  1.90502770E+00  2.05931487E+00  2.25339556E+00
  1.56957527E+00  1.96506705E+00  2.15914774E+00  2.11237290E+00  2.01812508E+00
  2.10766051E+00  2.03976717E+00  2.05599874E+00  2.13576032E+00  2.02458280E+00
  2.11411823E+00  2.04430503E+00  2.02580453E+00  2.09474507E+00  2.09230160E+00
  2.04622489E+00  2.14570870E+00  2.08619295E+00  2.03575291E+00  2.22180509E+00
  1.93085858E+00  1.98060048E+00  1.91427794E+00  2.03435665E+00  1.97361916E+00
  1.91270715E+00  1.96209999E+00  1.92143380E+00  1.91392888E+00  1.87430989E+00
  1.92649525E+00  2.05163542E+00  2.14082178E+00  2.13925098E+00  2.09771213E+00
  2.02458280E+00  2.10888224E+00  2.08357495E+00  1.88024401E+00  1.89455572E+00
%FLAG DIHEDRAL_FORCE_CONSTANT                                                   
%FORMAT(5E16.8)                                                                 
  1.10000000E+00  2.87500000E+00  4.75000000E+00  2.50000000E+00  1.05000000E+00
  4.00000000E+00  3.62500000E+00  4.80000000E+00  7.53000000E-01  0.00000000E+00
  3.32000000E-01  1.55555556E-01  7.30000000E-01  2.25000000E-01  6.00000000E-02
  2.50000000E-01  0.00000000E+00  1.23000000E-01  9.50000000E-01  2.00000000E+00
  4.50000000E-01  0.00000000E+00  1.10000000E+00  1.05000000E+01
%FLAG DIHEDRAL_PERIODICITY                                                      
%FORMAT(5E16.8)                                                                 
  2.00000000E+00  2.00000000E+00  2.00000000E+00  2.00000000E+00  2.00000000E+00
  2.00000000E+00  2.00000000E+00  2.00000000E+00  2.00000000E+00  2.00000000E+00
  2.00000000E+00  3.00000000E+00  3.00000000E+00  3.00000000E+00  3.00000000E+00
  1.00000000E+00  3.00000000E+00  3.00000000E+00  2.00000000E+00  1.00000000E+00
  2.00000000E+00  1.00000000E+00  2.00000000E+00  2.00000000E+00
%FLAG DIHEDRAL_PHASE                                                            
%FORMAT(5E16.8)                                                                 
  3.14159400E+00  3.14159400E+00  3.14159400E+00  3.14159400E+00  3.14159400E+00
  3.14159400E+00  3.14159400E+00  3.14159400E+00  3.14159400E+00  0.00000000E+00
  0.00000000E+00  0.00000000E+00  0.00000000E+00  0.00000000E+00  0.00000000E+00
  0.00000000E+00  0.00000000E+00  0.00000000E+00  3.14159400E+00  0.00000000E+00
  3.14159400E+00  0.00000000E+00  3.14159400E+00  3.14159400E+00
%FLAG SCEE_SCALE_FACTOR                                                         
%FORMAT(5E16.8)                                                                 
  1.20000000E+00  1.20000000E+00  1.20000000E+00  1.20000000E+00  1.20000000E+00
  1.20000000E+00  1.20000000E+00  1.20000000E+00  1.20000000E+00  1.20000000E+00
  1.20000000E+00  1.20000000E+00  1.20000000E+00  1.20000000E+00  1.20000000E+00
  1.20000000E+00  1.20000000E+00  1.20000000E+00  1.20000000E+00  1.20000000E+00
  1.20000000E+00  1.20000000E+00  0.00000000E+00  0.00000000E+00
%FLAG SCNB_SCALE_FACTOR                                                         
%FORMAT(5E16.8)                                                                 
  2.00000000E+00  2.00000000E+00  2.00000000E+00  2.00000000E+00  2.00000000E+00
  2.00000000E+00  2.00000000E+00  2.00000000E+00  2.00000000E+00  2.00000000E+00
  2.00000000E+00  2.00000000E+00  2.00000000E+00  2.00000000E+00  2.00000000E+00
  2.00000000E+00  2.00000000E+00  2.00000000E+00  2.00000000E+00  2.00000000E+00
  2.00000000E+00  2.00000000E+00  0.00000000E+00  0.00000000E+00
%FLAG SOLTY                                                                     
%FORMAT(5E16.8)                                                                 
  0.00000000E+00  0.00000000E+00  0.00000000E+00  0.00000000E+00  0.00000000E+00
  0.00000000E+00  0.00000000E+00  0.00000000E+00  0.00000000E+00  0.00000000E+00
  0.00000000E+00  0.00000000E+00  0.00000000E+00  0.00000000E+00  0.00000000E+00
  0.00000000E+00  0.00000000E+00  0.00000000E+00  0.00000000E+00  0.00000000E+00
%FLAG LENNARD_JONES_ACOEF                                                       
%FORMAT(5E16.8)                                                                 
  6.96551276E+05  7.69642101E+05  8.49322032E+05  1.73376823E+06  1.90820499E+06
  4.26366419E+06  8.17329084E+05  9.05243612E+05  2.04935397E+06  9.54790629E+05
  8.43969952E+05  9.31115275E+05  2.09089895E+06  9.93125065E+05  1.02073671E+06
  7.10207765E+05  7.84008042E+05  1.76274168E+06  8.34792752E+05  8.59569453E+05
  7.23647490E+05  5.92438683E+05  6.55497149E+05  1.48082758E+06  6.93394194E+05
  7.18991463E+05  6.04651377E+05  5.03152404E+05  2.25372434E+02  2.72118326E+02
  7.35778500E+02  2.23617883E+02  3.03553352E+02  2.45082140E+02  1.74176419E+02
  1.10360882E-05  7.01106848E+05  7.76656876E+05  1.75889445E+06  8.18751801E+05
  8.52084164E+05  7.16178718E+05  5.94682930E+05  1.89434762E+02  7.02078680E+05
  1.71458823E+03  2.01475241E+03  5.15374979E+03  1.79157166E+03  2.23577481E+03
  1.82809059E+03  1.36475542E+03  2.61760843E-03  1.52360475E+03  1.34728399E-01
  5.17507491E+05  5.74782316E+05  1.30884564E+06  6.01376873E+05  6.30925504E+05
  5.29641935E+05  4.37717034E+05  1.15813907E+02  5.15491878E+05  9.87857350E+02
  3.76435470E+05  1.49062160E+06  1.64251971E+06  3.67899711E+06  1.75809166E+06
  1.80018612E+06  1.51682150E+06  1.27155594E+06  5.83653537E+02  1.50866868E+06
  4.18912581E+03  1.11993097E+06  3.17107030E+06  6.27751680E+04  7.05112106E+04
  1.64354276E+05  7.14263282E+04  7.75673747E+04  6.47735754E+04  5.24591488E+04
  6.05535196E+00  6.11299385E+04  6.76796831E+01  4.36069364E+04  1.39186903E+05
  4.56536476E+03  7.52549148E+04  8.43518904E+04  1.95762765E+05  8.59636060E+04
  9.27554496E+04  7.75325560E+04  6.30298721E+04  8.53132435E+00  7.35931098E+04
  9.04434904E+01  5.27277400E+04  1.66104821E+05  5.62610481E+03  6.90855956E+03
  8.12662403E+04  9.11435380E+04  2.11783234E+05  9.27277603E+04  1.00235148E+05
  8.37616145E+04  6.80216136E+04  8.80612241E+00  7.93773615E+04  9.47421632E+01
  5.68021765E+04  1.79601155E+05  6.02863188E+03  7.41026906E+03  7.94617769E+03
  5.63013422E+04  6.34160397E+04  1.48672098E+05  6.37258620E+04  6.97998263E+04
  5.82112737E+04  4.69084694E+04  4.36660257E+00  5.45183252E+04  5.24570081E+01
  3.86646725E+04  1.25585106E+05  3.94664935E+03  4.88692384E+03  5.22955465E+03
  3.39005767E+03
%FLAG LENNARD_JONES_BCOEF                                                       
%FORMAT(5E16.8)                                                                 
  5.24668528E+02  5.44830041E+02  5.65406768E+02  1.07629402E+03  1.11546536E+03
  2.19459223E+03  6.90283231E+02  7.17661669E+02  1.42122969E+03  9.06156687E+02
  5.90251928E+02  6.12468585E+02  1.20800124E+03  7.77671659E+02  6.63431737E+02
  5.11427129E+02  5.30834917E+02  1.04764062E+03  6.73442883E+02  5.75038595E+02
  4.98353106E+02  4.76608379E+02  4.95260330E+02  9.79758754E+02  6.26253907E+02
  5.36620538E+02  4.64809588E+02  4.32634597E+02  4.40751799E+00  4.78443613E+00
  1.03548588E+01  5.33233396E+00  5.22789272E+00  4.43692527E+00  3.81654050E+00
  4.55498033E-04  5.97113873E+02  6.20851625E+02  1.22973599E+03  7.83721154E+02
  6.72777963E+02  5.82583725E+02  5.41675626E+02  4.58384710E+00  6.77820248E+02
  1.46824710E+01  1.57231024E+01  3.30984635E+01  1.82287422E+01  1.71355763E+01
  1.46352678E+01  1.29026271E+01  8.47240681E-03  1.57004457E+01  7.34107347E-02
  4.98871431E+02  5.19385932E+02  1.03157656E+03  6.53166727E+02  5.62969425E+02
  4.87196412E+02  4.51916854E+02  3.48534600E+00  5.64804067E+02  1.22938581E+01
  4.69350655E+02  9.81118883E+02  1.01742263E+03  2.00414708E+03  1.29413346E+03
  1.10195051E+03  9.55405536E+02  8.92559477E+02  9.06673074E+00  1.11967364E+03
  2.93366416E+01  9.38113535E+02  1.82923847E+03  1.00073628E+02  1.04776275E+02
  2.10544132E+02  1.29650812E+02  1.13692208E+02  9.81312253E+01  9.01089277E+01
  4.59018960E-01  1.12023534E+02  1.85338491E+00  9.20079458E+01  1.90482178E+02
  1.71467049E+01  1.09570372E+02  1.14599119E+02  2.29782888E+02  1.42233990E+02
  1.24325688E+02  1.07361937E+02  9.87712192E+01  5.44840215E-01  1.22913863E+02
  2.14252117E+00  1.01173582E+02  2.08087638E+02  1.90347353E+01  2.10929191E+01
  1.21392023E+02  1.27000718E+02  2.54804909E+02  1.57492664E+02  1.37787728E+02
  1.18970742E+02  1.09393126E+02  5.90150328E-01  1.36094315E+02  2.33785449E+00
  1.11953944E+02  2.30684859E+02  2.10068861E+01  2.32899892E+01  2.57122925E+01
  1.01040256E+02  1.05935811E+02  2.13489607E+02  1.30560951E+02  1.14981426E+02
  9.91793374E+01  9.08431526E+01  4.15568027E-01  1.12788003E+02  1.73959275E+00
  9.23664132E+01  1.92900608E+02  1.69967767E+01  1.89134207E+01  2.08590256E+01
  1.67944276E+01
%FLAG BONDS_INC_HYDROGEN                                                        
%FORMAT(10I8)                                                                   
       0     105       3      15     108       9      21     111      12      33
     114      14      33     117      14      33     120      14      42     123
      17      42     126      17      45     129      17      45     132      17
      51     135      17      51     138      17      54     141      17      54
     144      17      57     147      17      57     150      17      60     153
      17      60     156      17      63      66      20      72      75      23
      87     159      12      90     162      14      90     165      14      90
     168      14      93     171      12      96     174      12
%FLAG BONDS_WITHOUT_HYDROGEN                                                    
%FORMAT(10I8)                                                                   
       0       3       1       0       9       2       3      12       4       3
      69       5       6       9       6       6      12       4       6      15
       7      15      18       8      18      21      10      18      36      11
      21      24      10      24      27      11      24      39       8      27
      30      11      30      33      13      30      36      11      39      42
      15      39      54      15      42      45      16      45      48      18
      48      51      18      48      57      18      51      54      16      57
      60      16      60      63      19      69      72      21      69      78
      22      72      81      24      81      84      10      81      99      10
      84      87      10      84      90      13      87      93      10      93
      96      10      96      99      10      99     102      25
%FLAG ANGLES_INC_HYDROGEN                                                       
%FORMAT(10I8)                                                                   
       3       0     105       5       6      15     108      10       9       0
     105      11      18      15     108      18      18      21     111      20
      24      21     111      20      30      33     114      26      30      33
     117      26      30      33     120      26      39      42     123      28
      39      42     126      28      39      54     141      28      39      54
     144      28      42      45     129      31      42      45     132      31
      45      42     123      31      45      42     126      31      48      45
     129      33      48      45     132      33      48      51     135      33
      48      51     138      33      48      57     147      33      48      57
     150      33      51      54     141      31      51      54     144      31
      54      51     135      31      54      51     138      31      57      60
     153      31      57      60     156      31      60      57     147      31
      60      57     150      31      60      63      66      35      63      60
     153      36      63      60     156      36      69      72      75      37
      75      72      81      41      84      87     159      20      84      90
     162      26      84      90     165      26      84      90     168      26
      87      93     171      20      93      87     159      20      93      96
     174      20      96      93     171      20      99      96     174      20
     114      33     117      44     114      33     120      44     117      33
     120      44     123      42     126      45     129      45     132      45
     135      51     138      45     141      54     144      45     147      57
     150      45     153      60     156      45     162      90     165      44
     162      90     168      44     165      90     168      44
%FLAG ANGLES_WITHOUT_HYDROGEN                                                   
%FORMAT(10I8)                                                                   
       0       3      12       1       0       3      69       2       0       9
       6       3       3       0       9       4       3      12       6       6
       3      69      72       7       3      69      78       8       6      15
      18       9       9       6      12      12       9       6      15      13
      12       3      69      14      12       6      15      15      15      18
      21      16      15      18      36      17      18      21      24      19
      18      36      30      21      21      18      36      22      21      24
      27      22      21      24      39      16      24      27      30      21
      24      39      42      23      24      39      54      23      27      24
      39      17      27      30      33      24      27      30      36      25
      33      30      36      24      39      42      45      27      39      54
      51      27      42      39      54      29      42      45      48      30
      45      48      51      32      45      48      57      32      48      51
      54      30      48      57      60      30      51      48      57      32
      57      60      63      34      69      72      81      38      72      69
      78      39      72      81      84      40      72      81      99      40
      81      84      87      19      81      84      90      42      81      99
      96      19      81      99     102      43      84      81      99      19
      84      87      93      19      87      84      90      42      87      93
      96      19      93      96      99      19      96      99     102      43
%FLAG DIHEDRALS_INC_HYDROGEN                                                    
%FORMAT(10I8)                                                                   
       3      69      72      75       4     105       0       9       6       3
       9       6      15     108       5     105       0       3      12       6
      12       6      15     108       5      15      18      21     111       7
      21      18      15     108       5      24      39      42     123      11
      24      39      42     126      11      24      39      54     141      11
      24      39      54     144      11      27      24      21     111       7
      27      30      33     114      10      27      30      33     117      10
      27      30      33     120      10      36      18      15     108       5
      36      18      21     111       7      36      30      33     114      10
      36      30      33     117      10      36      30      33     120      10
      39      24      21     111       7      39      42      45     129      12
      39      42      45     132      12      39      54      51     135      12
      39      54      51     138      12      42      39      54     141      10
      42      39      54     144      10      45      48      51     135      14
      45      48      51     138      14      45      48      57     147      14
      45      48      57     150      14      48      45      42     123      12
      48      45      42     126      12      48      51      54     141      12
      48      51      54     144      12      48      57      60     153      12
      48      57      60     156      12      51      48      45     129      14
      51      48      45     132      14      51      48      57     147      14
      51      48      57     150      14      54      39      42     123      10
      54      39      42     126      10      57      48      45     129      14
      57      48      45     132      14      57      48      51     135      14
      57      48      51     138      14      57      60      63      66      15
      63      60      57     147      16      63      60     -57     147      17
      63      60      57     150      16      63      60     -57     150      17
      66      63      60     153      18      66      63      60     156      18
     105       0       3      69       6      75      72      69      78      20
      75      72     -69      78       4      75      72      81      84      21
      75      72      81      99      21      81      84      87     159       7
      81      84      90     162      22      81      84      90     165      22
      81      84      90     168      22      81      99      96     174       7
      84      87      93     171       7      87      84      90     162      22
      87      84      90     165      22      87      84      90     168      22
      87      93      96     174       7      90      84      87     159       7
      96      93      87     159       7      99      96      93     171       7
     102      99      96     174       7     123      42      45     129      12
     123      42      45     132      12     126      42      45     129      12
     126      42      45     132      12     135      51      54     141      12
     135      51      54     144      12     138      51      54     141      12
     138      51      54     144      12     147      57      60     153      12
     147      57      60     156      12     150      57      60     153      12
     150      57      60     156      12     159      87      93     171       7
     171      93      96     174       7       9       0    -105      -3      23
      18       6     -15    -108      23      18      24     -21    -111      23
      69      81     -72     -75      23      84      93     -87    -159      23
      87      96     -93    -171      23      93      99     -96    -174      23
%FLAG DIHEDRALS_WITHOUT_HYDROGEN                                                
%FORMAT(10I8)                                                                   
       0       3     -12       6       1       0       3      69      72       2
       0       3      69      78       2       0       9      -6      12       3
       0       9       6      15       3       3       0      -9       6       3
       3      12      -6       9       1       3      12       6      15       1
       3      69      72      81       4       6      12       3      69       1
       6      15      18      21       5       6      15      18      36       5
       9       0      -3      12       6       9       0       3      69       6
       9       6      15      18       5      12       3      69      72       2
      12       3      69      78       2      12       6      15      18       5
      15      18      21      24       7      15      18      36      30       8
      18      21      24      27       7      18      21      24      39       7
      18      36     -30      27       8      18      36      30      33       8
      21      18      36      30       8      21      24     -27      30       8
      21      24      39      42       9      21      24      39      54       9
      24      21      18      36       7      24      27      30      33       8
      24      27     -30      36       8      24      39      42      45      10
      24      39      54      51      10      27      24      39      42       5
      27      24      39      54       5      30      27      24      39       8
      39      42      45      48      12      39      54     -51      48      12
      42      39      54      51      10      42      45     -48      51      13
      42      45      48      57      13      45      42      39      54      10
      45      48     -51      54      13      45      48      57      60      13
      48      57      60      63      12      51      48      57      60      13
      54      51      48      57      13      69      72      81      84      19
      69      72      81      99      19      72      81      84      87       7
      72      81      84      90       7      72      81      99      96       7
      72      81      99     102       7      78      69      72      81       4
      81      84      87      93       7      81      99     -96      93       7
      84      81      99      96       7      84      81      99     102       7
      84      87     -93      96       7      87      84      81      99       7
      87      93     -96      99       7      90      84      81      99       7
      90      84      87      93       7      93      96      99     102       7
      69       0      -3     -12      23       9      15      -6     -12      23
      21      36     -18     -15      23      21      27     -24     -39      23
      33      27     -30     -36      23      42      54     -39     -24      23
       3      72     -69     -78      24      84      99     -81     -72      23
      81      87     -84     -90      23      81      96     -99    -102      23
%FLAG EXCLUDED_ATOMS_LIST                                                       
%FORMAT(10I8)                                                                   
       2       3       4       5       6      24      25      27      36       3
       4       5       6      24      25      26      27      28      36       4
       5       6       7       8      13      24      36      37       5       6
       7      24      36      37       6       7      24      25      27      36
      37       7       8       9      11      13      37      38       8       9
      10      11      12      13      14      37      38       9      10      11
      13      14      15      19      37      38      10      11      12      13
      14      15      16      18      19      38      42      43      48      49
      11      12      13      14      15      19      38      39      40      41
      12      13      14      39      40      41      13      39      40      41
      37      38      39      40      41      15      16      17      18      19
      38      42      43      44      45      46      47      48      49      16
      17      18      19      20      42      43      44      45      48      49
      17      18      19      20      21      42      43      44      45      46
      47      50      51      18      19      20      21      22      42      43
      44      45      46      47      48      49      50      51      52      53
      19      20      21      44      45      46      47      48      49      50
      51      20      42      43      46      47      48      49      21      22
      23      44      45      46      47      50      51      52      53      22
      23      50      51      52      53      23      50      51      52      53
      52      53      25      26      27      28      29      34      36      26
      27      28      29      30      31      33      34      35      27      28
      29      34      28      29      30      31      32      33      34      35
      54      55      56      57      59      30      31      32      33      34
      35      54      55      56      57      58      31      32      33      34
      54      55      56      57      58      59      32      34      54      55
      56      57      33      34      35      54      58      59      34      35
      54      58      59      35      58      59      59       0       0       0
      40      41      41       0      43      44      45      44      45      45
       0      47      48      49      48      49      49       0      51      52
      53      52      53      53       0      58      56      57      57       0
      59       0
%FLAG HBOND_ACOEF                                                               
%FORMAT(5E16.8)                                                                 

%FLAG HBOND_BCOEF                                                               
%FORMAT(5E16.8)                                                                 

%FLAG HBCUT                                                                     
%FORMAT(5E16.8)                                                                 

%FLAG AMBER_ATOM_TYPE                                                           
%FORMAT(20a4)                                                                   
cc  cd  cd  nc  ss  nh  ca  ca  ca  nb  ca  c3  nb  nh  c3  c3  n3  c3  c3  c3  
c3  oh  ho  c   n   hn  o   ca  ca  ca  c3  ca  ca  ca  cl  h4  hn  ha  hc  hc  
hc  h1  h1  h1  h1  h1  h1  h1  h1  h1  h1  h1  h1  ha  hc  hc  hc  ha  ha  
%FLAG TREE_CHAIN_CLASSIFICATION                                                 
%FORMAT(20a4)                                                                   
BLA BLA BLA BLA BLA BLA BLA BLA BLA BLA BLA BLA BLA BLA BLA BLA BLA BLA BLA BLA 
BLA BLA BLA BLA BLA BLA BLA BLA BLA BLA BLA BLA BLA BLA BLA BLA BLA BLA BLA BLA 
BLA BLA BLA BLA BLA BLA BLA BLA BLA BLA BLA BLA BLA BLA BLA BLA BLA BLA BLA 
%FLAG JOIN_ARRAY                                                                
%FORMAT(10I8)                                                                   
       0       0       0       0       0       0       0       0       0       0
       0       0       0       0       0       0       0       0       0       0
       0       0       0       0       0       0       0       0       0       0
       0       0       0       0       0       0       0       0       0       0
       0       0       0       0       0       0       0       0       0       0
       0       0       0       0       0       0       0       0       0
%FLAG IROTAT                                                                    
%FORMAT(10I8)                                                                   
       0       0       0       0       0       0       0       0       0       0
       0       0       0       0       0       0       0       0       0       0
       0       0       0       0       0       0       0       0       0       0
       0       0       0       0       0       0       0       0       0       0
       0       0       0       0       0       0       0       0       0       0
       0       0       0       0       0       0       0       0       0
%FLAG RADIUS_SET                                                                
%FORMAT(1a80)                                                                   
modified Bondi radii (mbondi)                                                   
%FLAG RADII                                                                     
%FORMAT(5E16.8)                                                                 
  1.70000000E+00  1.70000000E+00  1.70000000E+00  1.55000000E+00  1.80000000E+00
  1.55000000E+00  1.70000000E+00  1.70000000E+00  1.70000000E+00  1.55000000E+00
  1.70000000E+00  1.70000000E+00  1.55000000E+00  1.55000000E+00  1.70000000E+00
  1.70000000E+00  1.55000000E+00  1.70000000E+00  1.70000000E+00  1.70000000E+00
  1.70000000E+00  1.50000000E+00  8.00000000E-01  1.70000000E+00  1.55000000E+00
  1.30000000E+00  1.50000000E+00  1.70000000E+00  1.70000000E+00  1.70000000E+00
  1.70000000E+00  1.70000000E+00  1.70000000E+00  1.70000000E+00  1.70000000E+00
  1.30000000E+00  1.30000000E+00  1.30000000E+00  1.30000000E+00  1.30000000E+00
  1.30000000E+00  1.30000000E+00  1.30000000E+00  1.30000000E+00  1.30000000E+00
  1.30000000E+00  1.30000000E+00  1.30000000E+00  1.30000000E+00  1.30000000E+00
  1.30000000E+00  1.30000000E+00  1.30000000E+00  1.30000000E+00  1.30000000E+00
  1.30000000E+00  1.30000000E+00  1.30000000E+00  1.30000000E+00
%FLAG SCREEN                                                                    
%FORMAT(5E16.8)                                                                 
  7.20000000E-01  7.20000000E-01  7.20000000E-01  7.90000000E-01  9.60000000E-01
  7.90000000E-01  7.20000000E-01  7.20000000E-01  7.20000000E-01  7.90000000E-01
  7.20000000E-01  7.20000000E-01  7.90000000E-01  7.90000000E-01  7.20000000E-01
  7.20000000E-01  7.90000000E-01  7.20000000E-01  7.20000000E-01  7.20000000E-01
  7.20000000E-01  8.50000000E-01  8.50000000E-01  7.20000000E-01  7.90000000E-01
  8.50000000E-01  8.50000000E-01  7.20000000E-01  7.20000000E-01  7.20000000E-01
  7.20000000E-01  7.20000000E-01  7.20000000E-01  7.20000000E-01  8.00000000E-01
  8.50000000E-01  8.50000000E-01  8.50000000E-01  8.50000000E-01  8.50000000E-01
  8.50000000E-01  8.50000000E-01  8.50000000E-01  8.50000000E-01  8.50000000E-01
  8.50000000E-01  8.50000000E-01  8.50000000E-01  8.50000000E-01  8.50000000E-01
  8.50000000E-01  8.50000000E-01  8.50000000E-01  8.50000000E-01  8.50000000E-01
  8.50000000E-01  8.50000000E-01  8.50000000E-01  8.50000000E-01
%FLAG IPOL                                                                      
%FORMAT(1I8)                                                                    
       0
