1N1
  4508
  11.2020000 -34.2970000  -9.2250000  10.4160000 -35.3760000  -9.1140000
  12.5600000 -35.5720000  -7.9450000  12.3830000 -34.3970000  -8.5780000
  11.1750000 -36.5390000  -8.1730000  13.6470000 -35.8860000  -7.2350000
  13.6780000 -36.8630000  -6.3250000  14.8530000 -37.5690000  -6.0940000
  14.8260000 -38.5870000  -5.1350000  13.6690000 -38.8660000  -4.5020000
  12.5460000 -38.1700000  -4.7390000  11.2600000 -38.4910000  -3.9700000
  12.5630000 -37.1800000  -5.6430000  15.9400000 -39.3870000  -4.8020000
  16.4560000 -39.2890000  -3.4100000  17.9550000 -39.0910000  -3.4370000
  18.5810000 -40.1280000  -4.2690000  18.1030000 -40.1180000  -5.6720000
  16.5900000 -40.3230000  -5.7350000  20.0320000 -39.8250000  -4.2000000
  20.6280000 -39.5100000  -5.5800000  20.3380000 -38.1310000  -5.9070000
  19.9170000 -37.6540000  -5.0710000   9.0320000 -35.5580000  -9.7200000
   8.5240000 -34.4930000 -10.3410000   9.0780000 -33.5780000 -10.3810000
   8.4380000 -36.6290000  -9.5950000   7.3070000 -34.5740000 -10.9190000
   6.1620000 -34.1200000 -10.2400000   4.9030000 -34.2170000 -10.8450000
   6.2870000 -33.5470000  -8.8300000   4.7780000 -34.7400000 -12.1280000
   5.9210000 -35.1830000 -12.8090000   7.1750000 -35.1030000 -12.1970000
   8.5970000 -35.6430000 -13.0270000  10.9120000 -33.4120000  -9.7910000
  14.5420000 -35.3240000  -7.4050000  15.7660000 -37.3370000  -6.6420000
  10.4630000 -37.8240000  -4.2990000  11.4310000 -38.3530000  -2.9020000
  10.9700000 -39.5240000  -4.1610000  15.9870000 -38.4420000  -2.9080000
  16.2210000 -40.2070000  -2.8710000  18.1820000 -38.1090000  -3.8520000
  18.3470000 -39.1570000  -2.4220000  18.3520000 -39.1590000  -6.1270000
  18.5950000 -40.9200000  -6.2220000  16.3480000 -41.3480000  -5.4520000
  16.2370000 -40.1320000  -6.7490000  20.1790000 -38.9630000  -3.5500000
  20.5510000 -40.6880000  -3.7830000  21.7070000 -39.6620000  -5.5570000
  20.1840000 -40.1660000  -6.3290000   4.0160000 -33.8810000 -10.3080000
   5.3020000 -33.2500000  -8.4690000   6.9440000 -32.6780000  -8.8480000
   6.7040000 -34.3040000  -8.1650000   3.7980000 -34.8050000 -12.6010000
   5.8310000 -35.5900000 -13.8160000  -2.0480000 -28.6710000 -28.6380000
  -2.1200000 -27.7570000 -29.0630000  -2.8120000 -28.7880000 -27.9880000
  -1.8940000 -29.3550000 -29.3650000  -0.8350000 -28.6970000 -27.8180000
  -1.0990000 -28.9020000 -26.7810000   0.1260000 -29.7820000 -28.3000000
   0.1100000 -29.7880000 -29.3900000   1.1270000 -29.5250000 -27.9530000
  -0.2520000 -31.1590000 -27.7810000  -0.1660000 -31.1470000 -26.6940000
  -1.2870000 -31.3540000 -28.0610000   0.6360000 -32.2470000 -28.3450000
   0.9420000 -31.9710000 -29.3540000   1.5190000 -32.3500000 -27.7140000
  -0.1120000 -33.5670000 -28.3870000   0.5830000 -34.3750000 -28.1570000
  -0.9060000 -33.5480000 -27.6400000  -0.7060000 -33.7910000 -29.7380000
   0.0290000 -33.8090000 -30.4300000  -1.1990000 -34.6720000 -29.7470000
  -1.3500000 -33.0430000 -29.9510000  -0.1110000 -27.3510000 -27.7240000
  -0.1660000 -26.5310000 -28.6480000   0.5680000 -27.1360000 -26.5980000
   0.5590000 -27.8330000 -25.8670000   1.2570000 -25.8760000 -26.3440000
   1.0600000 -25.1840000 -27.1630000   0.7790000 -25.2320000 -25.0310000
   1.2370000 -24.2460000 -24.9550000  -0.3040000 -25.1250000 -25.0960000
   1.1360000 -26.0570000 -23.7930000   1.9890000 -26.9720000 -23.8940000
   0.5610000 -25.7790000 -22.7130000   2.7730000 -26.0400000 -26.3330000
   3.2930000 -27.1230000 -26.6130000   3.4670000 -24.9560000 -25.9900000
   2.9650000 -24.1120000 -25.7540000   4.9230000 -24.9010000 -26.0470000
   5.1820000 -25.2780000 -27.0370000   5.3930000 -23.4530000 -25.9380000
   5.1490000 -23.0650000 -24.9490000   6.4710000 -23.4080000 -26.0900000
   4.8950000 -22.8510000 -26.6970000   5.6500000 -25.7720000 -25.0180000
   6.8800000 -25.7220000 -24.9370000   4.9130000 -26.5610000 -24.2370000
   3.9040000 -26.5410000 -24.2790000   5.5500000 -27.4120000 -23.2250000
   6.4890000 -26.9580000 -22.9090000   4.6510000 -27.5810000 -21.9980000
   3.6390000 -27.8390000 -22.3100000   5.0420000 -28.3650000 -21.3490000
   4.5380000 -26.3380000 -21.1530000   3.5520000 -25.3980000 -21.2130000
   2.7630000 -25.5620000 -21.9470000   3.7830000 -24.4060000 -20.2910000
   3.1970000 -23.5980000 -20.1370000   4.9380000 -24.6920000 -19.6120000
   5.5780000 -23.9900000 -18.5900000   5.1310000 -23.0600000 -18.2390000
   6.7380000 -24.5200000 -18.0880000   7.2670000 -23.9980000 -17.2910000
   7.2630000 -25.7220000 -18.5770000   8.1850000 -26.1370000 -18.1700000
   6.6260000 -26.4220000 -19.5950000   7.0720000 -27.3560000 -19.9370000
   5.4420000 -25.9030000 -20.1290000   5.9510000 -28.7760000 -23.7820000
   6.7930000 -29.4660000 -23.2090000   5.3430000 -29.1480000 -24.9060000
   4.6320000 -28.5470000 -25.2960000   5.6290000 -30.4110000 -25.5820000
   5.3870000 -31.2500000 -24.9300000   4.7840000 -30.5200000 -26.8530000
   4.8770000 -29.5740000 -27.3860000   5.2110000 -31.3200000 -27.4580000
   3.3240000 -30.8100000 -26.5920000   2.9410000 -30.0430000 -25.9190000
   2.7930000 -30.7570000 -27.5420000   3.1130000 -32.1780000 -25.9710000
   3.9190000 -33.0960000 -26.2510000   2.1410000 -32.3340000 -25.2030000
   7.0980000 -30.5800000 -25.9510000   7.7620000 -29.6250000 -26.3580000
   7.5960000 -31.8030000 -25.8060000   7.0590000 -32.5080000 -25.3210000
   8.9160000 -32.1630000 -26.3070000   9.2530000 -31.4540000 -27.0640000
   9.9660000 -32.2530000 -25.1850000  10.8800000 -32.6880000 -25.5900000
  10.2690000 -30.8710000 -24.6220000   9.3560000 -30.4350000 -24.2160000
  11.0130000 -30.9560000 -23.8300000  10.6550000 -30.2310000 -25.4160000
   9.4930000 -33.2130000 -24.0900000   8.6600000 -32.7350000 -23.5750000
   9.1430000 -34.1210000 -24.5810000  10.5710000 -33.5650000 -23.0870000
  10.9210000 -32.6570000 -22.5950000  10.1650000 -34.2480000 -22.3410000
  11.4040000 -34.0430000 -23.6010000   8.8420000 -33.5080000 -27.0190000
   7.8490000 -34.2340000 -26.8870000   9.8900000 -33.8380000 -27.7900000
  11.0140000 -32.9600000 -28.1700000  11.5080000 -32.5970000 -27.2690000
  10.6330000 -32.1130000 -28.7410000  11.9020000 -33.8590000 -28.9960000
  12.6800000 -34.2870000 -28.3640000  12.3620000 -33.2830000 -29.7990000
  11.0030000 -34.9170000 -29.5460000  11.6070000 -35.8140000 -29.6840000
  10.4980000 -34.6730000 -30.4800000   9.9710000 -35.1490000 -28.4390000
   8.9780000 -35.4290000 -28.7910000  10.4810000 -36.2070000 -27.4660000
  11.5120000 -35.9970000 -26.8190000   9.7690000 -37.3260000 -27.3650000
   8.8930000 -37.4150000 -27.8590000  10.1910000 -38.4240000 -26.5010000
  10.0300000 -38.1540000 -25.4570000   9.3890000 -39.6900000 -26.8070000
   8.4820000 -39.6550000 -26.2040000   9.1240000 -39.6610000 -27.8640000
  10.1480000 -40.9780000 -26.5090000  10.9270000 -41.1010000 -27.2610000
  10.6060000 -40.8890000 -25.5240000   9.2280000 -42.1840000 -26.5320000
   9.5780000 -42.8850000 -27.2890000   9.2480000 -42.6660000 -25.5550000
   7.8500000 -41.8100000 -26.8420000   7.6310000 -41.6180000 -27.8090000
   6.8800000 -41.7040000 -25.9380000   7.1290000 -41.9500000 -24.6570000
   8.0590000 -42.2190000 -24.3690000   6.3870000 -41.8670000 -23.9770000
   5.6570000 -41.3560000 -26.3150000   5.4650000 -41.1720000 -27.2890000
   4.9230000 -41.2760000 -25.6260000  11.6830000 -38.7220000 -26.6270000
  12.3650000 -38.9390000 -25.6280000  12.1790000 -38.7300000 -27.8600000
  11.5650000 -38.5520000 -28.6420000  13.5710000 -39.0820000 -28.1380000
  13.7720000 -40.0930000 -27.7850000  13.8540000 -39.0230000 -29.6490000
  13.8070000 -37.9730000 -29.9380000  14.8690000 -39.3940000 -29.7940000
  12.8870000 -39.8330000 -30.5130000  13.3610000 -40.0180000 -31.4770000
  12.7180000 -40.7820000 -30.0040000  11.5530000 -39.1280000 -30.7300000
  11.5590000 -37.9810000 -31.2290000  10.4990000 -39.7240000 -30.4150000
  14.5770000 -38.2130000 -27.3730000  15.7240000 -38.6160000 -27.1730000
  14.1510000 -37.0240000 -26.9500000  13.2260000 -36.6980000 -27.1910000
  15.0290000 -36.1270000 -26.2010000  16.0590000 -36.2670000 -26.5290000
  14.6390000 -34.6630000 -26.4240000  15.2420000 -34.0420000 -25.7620000
  14.8550000 -34.4040000 -27.4610000  13.2660000 -34.4410000 -26.1580000
  13.0570000 -33.5160000 -26.3070000  15.0210000 -36.4680000 -24.7130000
  15.7600000 -35.8740000 -23.9240000  14.1740000 -37.4300000 -24.3510000
  13.5580000 -37.8210000 -25.0490000  14.0930000 -37.9480000 -22.9890000
  14.6610000 -37.3050000 -22.3170000  12.6380000 -37.9910000 -22.5110000
  12.1450000 -38.5440000 -23.3100000  12.6270000 -38.5860000 -21.5980000
  11.8990000 -36.6780000 -22.2710000  11.9770000 -36.0570000 -23.1630000
  10.4310000 -36.9470000 -21.9660000  10.3530000 -37.5680000 -21.0740000
   9.9150000 -36.0020000 -21.7970000   9.9730000 -37.4640000 -22.8090000
  12.5530000 -35.9000000 -21.1410000  13.5890000 -35.6810000 -21.4020000
  12.0140000 -34.9660000 -20.9830000  12.5260000 -36.4940000 -20.2270000
  14.6600000 -39.3600000 -22.9180000  14.2350000 -40.2440000 -23.6690000
  15.6080000 -39.5790000 -22.0120000  16.0740000 -38.8140000 -21.5460000
  16.0730000 -40.9350000 -21.7480000  15.3830000 -41.6520000 -22.1940000
  17.4620000 -41.1590000 -22.3430000  17.6330000 -42.2360000 -22.3420000
  17.4240000 -40.7980000 -23.3710000  18.5840000 -40.4730000 -21.6120000
  19.1850000 -39.9080000 -22.3250000  18.1660000 -39.7930000 -20.8700000
  19.4540000 -41.4990000 -20.9220000  18.9470000 -41.8530000 -20.0250000
  19.6240000 -42.3370000 -21.5980000  20.7430000 -40.9400000 -20.5390000
  20.8250000 -39.9330000 -20.5270000  21.8040000 -41.6670000 -20.2060000
  21.7330000 -42.9930000 -20.2090000  20.8690000 -43.4490000 -20.4650000
  22.5430000 -43.5400000 -19.9550000  22.9380000 -41.0680000 -19.8720000
  22.9920000 -40.0590000 -19.8720000  23.7430000 -41.6230000 -19.6190000
  16.0460000 -41.2560000 -20.2510000  16.7350000 -40.6140000 -19.4480000
  15.2230000 -42.2360000 -19.8850000  14.6280000 -42.6760000 -20.5730000
  15.1280000 -42.6850000 -18.4990000  15.0880000 -41.8190000 -17.8380000
  13.8690000 -43.5280000 -18.2770000  14.1140000 -44.4690000 -18.7700000
  13.8040000 -43.6880000 -17.2010000  12.5280000 -43.0150000 -18.7970000
  12.4740000 -43.1750000 -19.8740000  11.3960000 -43.7580000 -18.1190000
  11.4490000 -43.5980000 -17.0420000  10.4420000 -43.3880000 -18.4940000
  11.4810000 -44.8240000 -18.3320000  12.3820000 -41.5300000 -18.5630000
  13.1810000 -41.0000000 -19.0810000  11.4170000 -41.1950000 -18.9440000
  12.4420000 -41.3220000 -17.4950000  16.3570000 -43.5060000 -18.1270000
  16.8540000 -44.2900000 -18.9350000  16.8480000 -43.3280000 -16.9070000
  16.4310000 -42.6590000 -16.2750000  18.0090000 -44.0780000 -16.4500000
  18.3380000 -44.7640000 -17.2310000  19.1590000 -43.1280000 -16.1190000
  18.9120000 -42.6610000 -15.1660000  20.0490000 -43.7460000 -16.0000000
  19.4240000 -42.0560000 -17.1520000  19.5250000 -42.5290000 -18.1290000
  18.5720000 -41.3760000 -17.1640000  20.6820000 -41.2810000 -16.8360000
  21.3410000 -41.6180000 -15.8270000  21.0170000 -40.3440000 -17.5910000
  17.6980000 -44.9040000 -15.2100000  17.8100000 -46.1320000 -15.2140000
  17.2950000 -44.2110000 -14.1500000  16.9870000 -43.2560000 -14.2690000
  17.3100000 -44.7700000 -12.8030000  17.5140000 -45.8410000 -12.7880000
  18.3810000 -44.0530000 -11.9580000  18.1740000 -42.9830000 -11.9650000
  18.3740000 -44.5570000 -10.5370000  18.5820000 -45.6270000 -10.5290000
  19.1390000 -44.0350000  -9.9620000  17.3970000 -44.3740000 -10.0910000
  19.7570000 -44.2210000 -12.5850000  19.7540000 -43.7940000 -13.5880000
  20.5000000 -43.7080000 -11.9740000  20.0040000 -45.2810000 -12.6420000
  15.9520000 -44.6410000 -12.1130000  15.4450000 -43.5290000 -11.9360000
  15.3750000 -45.7750000 -11.7150000  15.8480000 -46.6550000 -11.8630000
  14.0330000 -45.7980000 -11.1280000  13.3780000 -45.1240000 -11.6800000
  13.4440000 -47.2060000 -11.1860000  13.4530000 -47.5230000 -12.2290000
  14.0940000 -47.8580000 -10.6030000  12.0250000 -47.2880000 -10.6440000
  12.0090000 -48.0210000  -9.8370000  11.7520000 -46.3090000 -10.2510000
  11.0300000 -47.6970000 -11.7190000  10.0340000 -47.3840000 -11.4060000
  11.2950000 -47.1900000 -12.6470000  11.0410000 -49.2020000 -11.9420000
  12.0440000 -49.4900000 -12.2570000  10.8050000 -49.6870000 -10.9950000
  10.0520000 -49.6270000 -12.9780000  10.2710000 -49.1780000 -13.8560000
  10.0940000 -50.6300000 -13.0920000   9.1230000 -49.3600000 -12.6860000
  14.0120000 -45.2870000  -9.6880000  14.9080000 -45.5950000  -8.9020000
  12.9800000 -44.5150000  -9.3500000  12.2820000 -44.2840000 -10.0420000
  12.8640000 -43.9150000  -8.0210000  13.6820000 -44.2560000  -7.3860000
  12.9270000 -42.3900000  -8.1230000  12.1400000 -42.1440000  -8.8360000
  12.6900000 -41.9480000  -7.1550000  14.2580000 -41.8350000  -8.6230000
  14.4160000 -42.1720000  -9.6470000  14.2620000 -40.3160000  -8.5840000
  14.1050000 -39.9780000  -7.5600000  15.2210000 -39.9450000  -8.9450000
  13.4630000 -39.9340000  -9.2190000  15.4210000 -42.4060000  -7.8150000
  15.4340000 -43.4910000  -7.9130000  16.3590000 -41.9970000  -8.1890000
  15.3010000 -42.1380000  -6.7650000  11.6050000 -44.3310000  -7.2590000
  11.5780000 -44.2930000  -6.0260000  10.5600000 -44.7150000  -7.9860000
  10.5890000 -44.6920000  -8.9950000   9.3440000 -45.1800000  -7.3430000
   9.6070000 -46.0410000  -6.7280000   8.9830000 -44.3740000  -6.7040000
   8.2420000 -45.5790000  -8.3040000   8.2810000 -45.2390000  -9.4900000
   7.2530000 -46.3080000  -7.7920000   7.3140000 -46.6600000  -6.8470000
   6.0770000 -46.6490000  -8.5820000   6.0240000 -45.9960000  -9.4530000
   6.1320000 -48.0970000  -9.0600000   5.5620000 -48.6870000  -8.3420000
   5.6360000 -48.1270000 -10.0300000   7.5230000 -48.6700000  -9.1890000
   8.1340000 -47.9770000  -9.7670000   7.9600000 -48.8000000  -8.1990000
   7.5130000 -50.0070000  -9.8920000   8.4250000 -50.3290000 -10.6560000
   6.4700000 -50.7940000  -9.6480000   6.4100000 -51.7000000 -10.0910000
   5.7420000 -50.4830000  -9.0210000   4.8020000 -46.4390000  -7.7740000
   4.8460000 -46.2840000  -6.5520000   3.6680000 -46.4330000  -8.4650000
   3.6910000 -46.5040000  -9.4720000   2.3790000 -46.3270000  -7.8130000
   2.4550000 -46.7160000  -6.7980000   2.0760000 -45.2800000  -7.7790000
   1.3310000 -47.1190000  -8.5670000   1.6330000 -48.1470000  -9.1770000
   0.0940000 -46.6400000  -8.5280000  -0.1190000 -45.8400000  -7.9490000
  -0.9960000 -47.2760000  -9.2540000  -0.6530000 -48.2140000  -9.6900000
  -2.1630000 -47.5740000  -8.3080000  -3.0720000 -47.7540000  -8.8820000
  -1.9370000 -48.4510000  -7.7010000  -2.5600000 -46.2410000  -7.1390000
  -3.5670000 -46.8730000  -6.5440000  -1.4550000 -46.4000000 -10.4180000
  -2.6530000 -46.2020000 -10.6250000  -0.4880000 -45.8830000 -11.1720000
   0.4740000 -46.0930000 -10.9480000  -0.7580000 -44.9880000 -12.2920000
  -1.5270000 -45.4210000 -12.9310000  -1.2470000 -43.6270000 -11.7920000
  -0.9310000 -42.8410000 -12.4780000  -2.3340000 -43.6250000 -11.7130000
  -0.7160000 -43.2530000 -10.4350000   0.6500000 -43.1210000 -10.2150000
   1.3410000 -43.2880000 -11.0410000   1.1360000 -42.7810000  -8.9620000
   2.2090000 -42.6840000  -8.8000000   0.2560000 -42.5650000  -7.9160000
   0.6330000 -42.2960000  -6.9300000  -1.1070000 -42.6920000  -8.1250000
  -1.8030000 -42.5230000  -7.3030000  -1.5860000 -43.0340000  -9.3780000
  -2.6590000 -43.1340000  -9.5430000   0.4900000 -44.8020000 -13.1450000
   0.4130000 -44.3090000 -14.2700000   1.6390000 -45.1930000 -12.6040000
   1.6510000 -45.6120000 -11.6850000   2.8990000 -45.0340000 -13.3030000
   3.0260000 -45.8740000 -13.9860000   2.8650000 -44.1060000 -13.8730000
   4.0790000 -44.9870000 -12.3550000   3.9890000 -45.4330000 -11.2090000
   5.1890000 -44.4350000 -12.8320000   5.1800000 -43.9800000 -13.7340000
   6.4430000 -44.4810000 -12.0940000   6.2590000 -44.7620000 -11.0570000
   7.3760000 -45.5180000 -12.7230000   7.6470000 -45.1440000 -13.7100000
   8.2660000 -45.5660000 -12.0960000   6.7750000 -46.9090000 -12.8560000
   6.7230000 -47.3460000 -11.8590000   5.7680000 -46.8020000 -13.2590000
   7.5920000 -47.8190000 -13.7670000   8.6480000 -47.3740000 -14.2680000
   7.1770000 -48.9790000 -13.9830000   7.1420000 -43.1290000 -12.0880000
   6.7240000 -42.1950000 -12.7740000   8.2270000 -43.0420000 -11.3240000
   8.4870000 -43.8200000 -10.7350000   9.0610000 -41.8510000 -11.3000000
   8.8210000 -41.1750000 -12.1210000   8.9090000 -41.0940000  -9.9840000
   9.1160000 -41.7700000  -9.1540000   9.8800000 -39.9310000  -9.9420000
   9.6730000 -39.2540000 -10.7710000   9.7660000 -39.3950000  -9.0000000
  10.9000000 -40.3060000 -10.0250000   7.4740000 -40.6180000  -9.8150000
   6.8040000 -41.4770000  -9.8120000   7.3780000 -40.0790000  -8.8720000
   7.2110000 -39.9560000 -10.6400000  10.5180000 -42.2330000 -11.4680000
  11.0530000 -43.0220000 -10.6930000  11.1590000 -41.6680000 -12.4830000
  10.6860000 -40.9820000 -13.0540000  12.5410000 -41.9930000 -12.7990000
  12.9160000 -42.7530000 -12.1130000  12.6270000 -42.5380000 -14.2280000
  12.0310000 -41.9220000 -14.9020000  13.6660000 -42.5370000 -14.5580000
  12.1320000 -43.9390000 -14.3800000  10.8410000 -44.3740000 -14.2840000
  10.0800000 -43.6230000 -14.0700000  10.7860000 -45.7330000 -14.4900000
   9.9480000 -46.2970000 -14.4690000  12.0540000 -46.1990000 -14.7260000
  12.5050000 -47.4940000 -14.9860000  11.7760000 -48.3030000 -15.0180000
  13.8490000 -47.6660000 -15.1860000  14.2370000 -48.6640000 -15.3920000
  14.7430000 -46.5870000 -15.1320000  15.8110000 -46.7340000 -15.2920000
  14.2950000 -45.3020000 -14.8740000  15.0290000 -44.4970000 -14.8450000
  12.9260000 -45.0940000 -14.6640000  13.4220000 -40.7670000 -12.7130000
  12.9600000 -39.6450000 -12.9470000  14.6860000 -40.9760000 -12.3630000
  14.9570000 -41.8200000 -11.8790000  15.7160000 -40.0070000 -12.6840000
  15.3820000 -39.0050000 -12.4170000  16.9850000 -40.3190000 -11.9080000
  16.6770000 -40.6040000 -10.9020000  17.4530000 -41.1720000 -12.4000000
  17.9760000 -39.1770000 -11.8270000  17.4310000 -38.2460000 -11.9870000
  18.4090000 -39.1770000 -10.8270000  19.3010000 -39.3060000 -13.0470000
  20.2150000 -40.7170000 -12.4130000  19.5630000 -41.5900000 -12.3850000
  21.0660000 -40.9210000 -13.0620000  20.5710000 -40.4980000 -11.4060000
  15.9490000 -40.1650000 -14.1880000  15.4880000 -41.1500000 -14.7800000
  16.6160000 -39.1990000 -14.8150000  16.9380000 -38.3830000 -14.3140000
  16.9000000 -39.2900000 -16.2370000  17.5070000 -40.1760000 -16.4200000
  15.9590000 -39.3770000 -16.7800000  17.6460000 -38.0700000 -16.7360000
  18.0490000 -37.2190000 -15.9380000  17.8330000 -37.9730000 -18.0510000
  17.5870000 -38.7340000 -18.6680000  18.4940000 -36.8030000 -18.6240000
  18.5200000 -36.0120000 -17.8740000  19.9320000 -37.1140000 -19.0590000
  19.9090000 -37.7720000 -19.9270000  20.6580000 -35.8300000 -19.4170000
  20.6820000 -35.1710000 -18.5490000  21.6780000 -36.0620000 -19.7240000
  20.1370000 -35.3330000 -20.2350000  20.6280000 -37.7550000 -17.9830000
  21.5280000 -37.9500000 -18.2550000  17.7020000 -36.2090000 -19.7880000
  16.9060000 -36.9010000 -20.4360000  17.9110000 -34.9180000 -20.0340000
  18.5870000 -34.4080000 -19.4840000  17.1790000 -34.1980000 -21.0740000
  16.5250000 -34.8830000 -21.6140000  16.3220000 -33.1000000 -20.4420000
  15.7630000 -33.5050000 -19.5980000  16.9660000 -32.2920000 -20.0960000
  15.3150000 -32.4800000 -21.3670000  14.8010000 -33.0230000 -22.5120000
  15.1610000 -34.0120000 -22.7950000  13.8970000 -32.1550000 -23.0810000
  13.3760000 -32.3210000 -23.9300000  13.8170000 -31.0270000 -22.3050000
  13.0460000 -29.8770000 -22.4680000  12.3870000 -29.8110000 -23.3330000
  13.1680000 -28.8950000 -21.5210000  12.5800000 -27.9820000 -21.6150000
  14.0340000 -29.0350000 -20.4290000  14.1250000 -28.2470000 -19.6810000
  14.8000000 -30.1770000 -20.2660000  15.4560000 -30.2390000 -19.3980000
  14.6960000 -31.1980000 -21.2180000  18.1460000 -33.5710000 -22.0690000
  18.9670000 -32.7280000 -21.6940000  18.0360000 -33.9730000 -23.3340000
  17.3490000 -34.6700000 -23.5850000  18.9340000 -33.4780000 -24.3770000
  18.7920000 -34.0610000 -25.2870000  18.6540000 -32.0000000 -24.6920000
  19.1170000 -31.3770000 -23.9270000  19.0960000 -31.7720000 -25.6620000
  17.1630000 -31.6770000 -24.7480000  16.6710000 -30.8430000 -23.9830000
  16.4450000 -32.3230000 -25.6610000  15.4540000 -32.1450000 -25.7380000
  16.8940000 -32.9890000 -26.2730000  20.3980000 -33.6640000 -23.9740000
  21.2220000 -32.7630000 -24.1610000  20.7000000 -34.8300000 -23.4010000
  19.9580000 -35.4940000 -23.2310000  22.0530000 -35.1920000 -23.0080000
  21.9640000 -36.1050000 -22.4190000  22.5900000 -35.4080000 -23.9320000
  22.8370000 -34.1620000 -22.2090000  24.0620000 -34.2410000 -22.1180000
  22.1360000 -33.1920000 -21.6290000  21.1310000 -33.1700000 -21.7280000
  22.7760000 -32.1500000 -20.8320000  23.8400000 -32.3560000 -20.7180000
  22.6100000 -30.7640000 -21.4840000  22.6810000 -30.0020000 -20.7080000
  23.6880000 -30.5190000 -22.5360000  23.6180000 -31.2800000 -23.3130000
  23.5460000 -29.5330000 -22.9800000  24.6710000 -30.5680000 -22.0680000
  21.3120000 -30.6690000 -22.0900000  21.2110000 -29.8050000 -22.4960000
  22.1820000 -32.0470000 -19.4350000  22.9000000 -31.8920000 -18.4480000
  20.8580000 -32.1270000 -19.3670000  20.3290000 -32.4610000 -20.1600000
  20.1270000 -31.6560000 -18.1960000  20.8040000 -31.1680000 -17.4950000
  19.0290000 -30.6440000 -18.6110000  18.2300000 -31.1840000 -19.1200000
  18.4610000 -29.9250000 -17.3950000  19.2590000 -29.3850000 -16.8860000
  17.6930000 -29.2210000 -17.7150000  18.0240000 -30.6540000 -16.7130000
  19.5770000 -29.6780000 -19.5170000  18.8930000 -29.0540000 -19.7710000
  19.5080000 -32.7770000 -17.3590000  18.7150000 -33.5800000 -17.8640000
  19.8770000 -32.8220000 -16.0790000  20.5840000 -32.1900000 -15.7310000
  19.3180000 -33.8070000 -15.1610000  19.3610000 -34.7950000 -15.6190000
  20.0960000 -33.8440000 -13.8470000  21.0710000 -33.3910000 -14.0280000
  19.5470000 -33.2450000 -13.1210000  20.2850000 -35.2610000 -13.3000000
  19.4230000 -35.8510000 -13.6110000  21.1870000 -35.6710000 -13.7540000
  20.4140000 -35.3100000 -11.7760000  20.0440000 -34.3650000 -11.3780000
  19.7890000 -36.1260000 -11.4130000  21.7850000 -35.5180000 -11.2950000
  22.1510000 -34.8250000 -10.6580000  22.5620000 -36.5480000 -11.6300000
  22.1280000 -37.4780000 -12.4740000  21.2000000 -37.4060000 -12.8670000
  22.7280000 -38.2530000 -12.7190000  23.7870000 -36.6440000 -11.1250000
  24.1250000 -35.9360000 -10.4890000  24.3750000 -37.4250000 -11.3790000
  17.8500000 -33.4960000 -14.8930000  17.4910000 -32.3680000 -14.5460000
  17.0040000 -34.5030000 -15.0690000  17.3460000 -35.4080000 -15.3600000
  15.5760000 -34.3390000 -14.8720000  15.3410000 -33.4230000 -14.3310000
  14.8060000 -34.3320000 -16.2140000  13.7440000 -34.4600000 -16.0070000
  15.0230000 -33.0200000 -16.9690000  16.0850000 -32.8910000 -17.1770000
  14.4700000 -33.0450000 -17.9080000  14.6690000 -32.1870000 -16.3610000
  15.2140000 -35.5280000 -17.0680000  14.9870000 -36.4510000 -16.5340000
  14.6630000 -35.5080000 -18.0080000  16.2840000 -35.4810000 -17.2730000
  15.0000000 -35.4510000 -14.0110000  15.6620000 -36.4530000 -13.7290000
  13.7540000 -35.2480000 -13.5960000  13.3520000 -34.3270000 -13.6910000
  12.9390000 -36.2950000 -13.0310000  13.4470000 -37.2510000 -12.9080000
  12.3770000 -35.8690000 -11.6910000  11.8570000 -34.9170000 -11.8000000
  11.6780000 -36.6250000 -11.3330000  13.1900000 -35.7580000 -10.9740000
  11.8220000 -36.5010000 -14.0290000  11.2670000 -35.5250000 -14.5570000
  11.5020000 -37.7580000 -14.3150000  12.0110000 -38.5320000 -13.9120000
  10.4170000 -38.0530000 -15.2430000   9.9220000 -37.1320000 -15.5500000
  10.9080000 -38.8120000 -16.4910000  11.3610000 -39.7540000 -16.1810000
   9.7450000 -39.0940000 -17.4270000   9.2920000 -38.1530000 -17.7380000
  10.1060000 -39.6310000 -18.3040000   9.0010000 -39.7010000 -16.9110000
  11.9980000 -38.0260000 -17.2180000  11.7400000 -38.0150000 -18.2770000
  11.9790000 -37.0080000 -16.8290000  13.3800000 -38.6040000 -17.0440000
  13.4000000 -39.6220000 -17.4330000  14.1010000 -37.9940000 -17.5880000
  13.6390000 -38.6150000 -15.9850000   9.3450000 -38.8900000 -14.5680000
   9.6500000 -39.8520000 -13.8690000   8.0900000 -38.5260000 -14.7880000
   7.8910000 -37.7030000 -15.3380000   6.9730000 -39.2680000 -14.2290000
   7.3460000 -40.0620000 -13.5820000   6.0760000 -38.3530000 -13.4080000
   6.6820000 -37.9230000 -12.6110000   5.7230000 -37.5580000 -14.0650000
   4.8900000 -39.0730000 -12.8070000   4.2770000 -39.4800000 -13.6110000
   5.2500000 -39.8870000 -12.1780000   4.0610000 -38.1220000 -11.9740000
   4.7200000 -37.3780000 -11.5260000   3.3380000 -37.6240000 -12.6200000
   3.3290000 -38.8710000 -10.8810000   2.6950000 -39.6250000 -11.3470000
   4.0680000 -39.3600000 -10.2460000   2.4870000 -37.9570000 -10.0520000
   1.8020000 -37.5040000 -10.6400000   2.0160000 -38.4910000  -9.3360000
   3.0740000 -37.2580000  -9.6200000   6.1720000 -39.9060000 -15.3530000
   5.7360000 -39.2290000 -16.2780000   5.9730000 -41.2130000 -15.2630000
   6.1740000 -41.7050000 -14.4040000   5.4820000 -41.9780000 -16.3950000
   5.5200000 -41.3710000 -17.3000000   6.3310000 -43.2280000 -16.6100000
   6.0800000 -43.6680000 -17.5750000   7.8130000 -42.8690000 -16.5850000
   8.0650000 -42.4290000 -15.6200000   8.4080000 -43.7690000 -16.7390000
   8.0270000 -42.1520000 -17.3780000   6.0530000 -44.1770000 -15.5730000
   6.5870000 -44.9640000 -15.7080000   4.0430000 -42.4240000 -16.2380000
   3.4770000 -42.4110000 -15.1400000   3.4530000 -42.8250000 -17.3560000
   3.9100000 -42.7080000 -18.2490000   2.1300000 -43.4160000 -17.3330000
   1.6410000 -43.1910000 -16.3850000   1.2720000 -42.8530000 -18.4720000
   1.5960000 -41.8150000 -18.5530000   1.5130000 -43.3820000 -19.3940000
  -0.2350000 -42.8980000 -18.2400000  -0.6140000 -43.8810000 -18.5210000
  -0.5390000 -42.6390000 -16.7780000  -0.1610000 -41.6560000 -16.4960000
  -1.6170000 -42.6720000 -16.6190000  -0.0580000 -43.4020000 -16.1660000
  -0.9760000 -41.9050000 -19.1310000  -0.7840000 -42.1420000 -20.1780000
  -2.0460000 -41.9690000 -18.9350000  -0.6270000 -40.8940000 -18.9180000
   2.2680000 -44.9290000 -17.4700000   2.9300000 -45.4240000 -18.3920000
   1.6930000 -45.6600000 -16.5200000   1.4800000 -45.2730000 -15.6120000
   1.3430000 -47.0470000 -16.7780000   2.1770000 -47.5410000 -17.2760000
   1.0310000 -47.8000000 -15.4870000   1.1230000 -47.0870000 -14.6680000
  -0.0010000 -48.1430000 -15.5560000   1.9510000 -48.9990000 -15.2260000
   2.0460000 -49.5850000 -16.1400000   2.9340000 -48.6390000 -14.9220000
   1.3660000 -49.8710000 -14.1220000   1.7090000 -49.4830000 -13.1630000
   0.2790000 -49.8030000 -14.1730000   1.7890000 -51.3230000 -14.2610000
   1.5900000 -51.6330000 -15.2870000   2.8600000 -51.3790000 -14.0660000
   1.0640000 -52.2270000 -13.3190000   0.0720000 -52.1750000 -13.4990000
   1.3810000 -53.1770000 -13.4520000   1.2490000 -51.9410000 -12.3680000
   0.1080000 -46.8920000 -17.6590000  -0.9660000 -46.5430000 -17.1690000
   0.2760000 -47.1300000 -18.9710000   1.2160000 -48.1520000 -19.4710000
   0.8480000 -49.1430000 -19.2040000   2.1950000 -47.9950000 -19.0190000
   1.2270000 -47.9210000 -20.9540000   1.4180000 -48.8600000 -21.4740000
   2.0030000 -47.2000000 -21.2110000  -0.1280000 -47.3840000 -21.2790000
  -0.8640000 -48.1700000 -21.4490000  -0.0680000 -46.7460000 -22.1610000
  -0.5300000 -46.5480000 -20.0540000  -0.1930000 -45.5170000 -20.1600000
  -2.0530000 -46.5700000 -19.8520000  -2.6990000 -45.5390000 -20.0550000
  -2.6160000 -47.7140000 -19.4730000  -2.0440000 -48.5140000 -19.2440000
  -4.0620000 -47.8490000 -19.3760000  -4.5010000 -47.0720000 -20.0020000
  -4.3220000 -48.8290000 -19.7770000  -4.6230000 -47.7260000 -17.9700000
  -5.8130000 -47.9550000 -17.7500000  -3.7670000 -47.3530000 -17.0210000
  -2.8240000 -47.1000000 -17.2800000  -4.1160000 -47.3700000 -15.5990000
  -4.7350000 -48.2380000 -15.3740000  -2.8520000 -47.4230000 -14.7150000
  -2.3960000 -46.4330000 -14.6920000  -3.2040000 -47.8510000 -13.2990000
  -3.6600000 -48.8410000 -13.3210000  -2.2990000 -47.8820000 -12.6930000
  -3.9060000 -47.1380000 -12.8670000  -1.9110000 -48.3480000 -15.2740000
  -1.1260000 -48.3790000 -14.7220000  -4.9830000 -46.1880000 -15.1660000
  -5.7090000 -46.2750000 -14.1790000  -4.9080000 -45.0840000 -15.9010000
  -4.2400000 -45.0200000 -16.6560000  -5.7370000 -43.9170000 -15.6080000
  -6.7560000 -44.2410000 -15.3960000  -5.2060000 -43.1490000 -14.3970000
  -6.0560000 -42.6490000 -13.9330000  -4.7940000 -43.8830000 -13.7040000
  -4.1410000 -42.1230000 -14.7390000  -3.1670000 -42.6100000 -14.7050000
  -4.3270000 -41.7540000 -15.7470000  -4.1500000 -40.7360000 -13.5890000
  -5.6780000 -39.9130000 -14.0550000  -6.5160000 -40.5970000 -13.9180000
  -5.8220000 -39.0320000 -13.4290000  -5.6240000 -39.6100000 -15.1010000
  -5.8240000 -42.9850000 -16.8110000  -5.0130000 -43.0730000 -17.7360000
  -6.8120000 -42.0940000 -16.7890000  -7.4460000 -42.0730000 -16.0030000
  -7.0500000 -41.1720000 -17.8960000  -7.0540000 -41.7210000 -18.8380000
  -8.3960000 -40.4720000 -17.7340000  -9.1920000 -41.2100000 -17.8310000
  -8.4420000 -40.0180000 -16.7440000  -8.5580000 -39.4700000 -18.7210000
  -9.4090000 -39.0410000 -18.6040000  -5.9440000 -40.1330000 -18.0170000
  -5.8330000 -39.2410000 -17.1750000  -5.1430000 -40.2320000 -19.0910000
  -5.4330000 -41.1120000 -20.2350000  -6.2590000 -40.6980000 -20.8130000
  -5.7050000 -42.1030000 -19.8730000  -4.1410000 -41.1160000 -20.9980000
  -4.3360000 -41.2800000 -22.0580000  -3.4910000 -41.9060000 -20.6230000
  -3.5410000 -39.7730000 -20.7560000  -3.9840000 -39.0640000 -21.4560000
  -2.4560000 -39.7490000 -20.8530000  -3.9460000 -39.4110000 -19.3200000
  -3.2010000 -39.6840000 -18.5730000  -4.2410000 -37.9170000 -19.2210000
  -3.3660000 -37.1480000 -18.8290000  -5.4550000 -37.5180000 -19.5870000
  -6.0970000 -38.1710000 -20.0130000  -5.8860000 -36.1370000 -19.4180000
  -5.2590000 -35.4770000 -20.0170000  -7.3380000 -35.9750000 -19.8700000
  -7.3230000 -35.7830000 -20.9430000  -7.8440000 -36.9210000 -19.6780000
  -8.0810000 -34.8520000 -19.1650000  -8.9130000 -35.2880000 -18.6120000
  -7.3830000 -34.3900000 -18.4660000  -8.6060000 -33.8020000 -20.1210000
  -9.6640000 -34.0430000 -20.7410000  -7.9680000 -32.7330000 -20.2440000
  -5.7460000 -35.7240000 -17.9560000  -5.0030000 -34.7970000 -17.6200000
  -6.4600000 -36.4310000 -17.0880000  -7.0850000 -37.1510000 -17.4230000
  -6.4220000 -36.1610000 -15.6600000  -6.6170000 -35.1010000 -15.4950000
  -7.4940000 -36.9700000 -14.9450000  -7.3070000 -38.0330000 -15.0940000
  -7.4710000 -36.7430000 -13.8790000  -8.4730000 -36.7140000 -15.3490000
  -5.0430000 -36.4640000 -15.0810000  -4.6890000 -35.9640000 -14.0140000
  -4.2680000 -37.2830000 -15.7860000  -4.6350000 -37.7430000 -16.6070000
  -2.8990000 -37.5840000 -15.3780000  -2.8690000 -37.7860000 -14.3070000
  -2.3740000 -38.8150000 -16.1230000  -2.9140000 -39.7100000 -15.8130000
  -2.4980000 -38.6690000 -17.1960000  -0.9090000 -39.0930000 -15.8920000
  -0.4830000 -39.7370000 -14.7440000  -1.2210000 -40.0390000 -14.0010000
   0.8600000 -39.9990000 -14.5320000   1.1780000 -40.5040000 -13.6200000
   1.7960000 -39.6210000 -15.4740000   2.8540000 -39.8260000 -15.3100000
   1.3880000 -38.9820000 -16.6260000   2.1230000 -38.6810000 -17.3730000
   0.0400000 -38.7220000 -16.8340000  -0.2840000 -38.2210000 -17.7460000
  -1.9800000 -36.3890000 -15.6270000  -0.8940000 -36.2890000 -15.0490000
  -2.4210000 -35.4810000 -16.4890000  -3.3040000 -35.6100000 -16.9620000
  -1.6120000 -34.3250000 -16.8430000  -0.6090000 -34.4370000 -16.4330000
  -1.5060000 -34.1890000 -18.3630000  -2.5250000 -34.3500000 -18.7150000
  -1.1920000 -33.1760000 -18.6130000  -0.5690000 -35.1940000 -19.0370000
  -0.8130000 -36.1960000 -18.6830000  -0.7210000 -35.1400000 -20.5460000
  -0.4770000 -34.1390000 -20.9010000  -0.0460000 -35.8620000 -21.0060000
  -1.7490000 -35.3810000 -20.8170000   0.8730000 -34.9390000 -18.6260000
   0.9660000 -35.0390000 -17.5450000   1.5240000 -35.6630000 -19.1150000
   1.1630000 -33.9310000 -18.9230000  -2.1310000 -33.0290000 -16.2330000
  -1.5360000 -31.9750000 -16.4370000  -3.2320000 -33.1010000 -15.4880000
  -3.7480000 -33.9650000 -15.4020000  -3.7580000 -31.9100000 -14.8220000
  -3.8990000 -31.1180000 -15.5580000  -5.1020000 -32.1930000 -14.1450000
  -5.6380000 -31.2450000 -14.0920000  -5.6460000 -32.8820000 -14.7920000
  -4.9890000 -32.7920000 -12.7450000  -4.3330000 -33.6620000 -12.7860000
  -4.5580000 -32.0440000 -12.0800000  -6.3360000 -33.2250000 -12.1830000
  -7.2300000 -33.6340000 -12.9290000  -6.4860000 -33.1390000 -10.8630000
  -7.3600000 -33.4140000 -10.4380000  -5.7250000 -32.8000000 -10.2920000
  -2.7410000 -31.4000000 -13.8030000  -2.7320000 -30.2150000 -13.4600000
  -1.8830000 -32.3060000 -13.3350000  -1.9860000 -33.2710000 -13.6140000
  -0.8140000 -31.9660000 -12.4080000  -1.2140000 -31.3990000 -11.5670000
  -0.1620000 -33.2430000 -11.8710000  -0.9680000 -33.8750000 -11.4970000
   0.3190000 -33.7320000 -12.7190000   0.8680000 -33.0190000 -10.7600000
   1.5970000 -32.2910000 -11.1160000   0.3400000 -32.6120000  -9.8980000
   1.5890000 -34.3060000 -10.3550000   1.4560000 -35.3230000 -11.0710000
   2.2940000 -34.3010000  -9.3230000   0.2270000 -31.0970000 -13.1160000
   0.9470000 -30.3280000 -12.4790000   0.3000000 -31.2350000 -14.4380000
  -0.2380000 -31.9570000 -14.8950000   1.1920000 -30.4180000 -15.2510000
   2.0560000 -30.1420000 -14.6460000   1.6740000 -31.1980000 -16.4540000
   0.8210000 -31.4730000 -17.0750000   2.3620000 -30.5830000 -17.0350000
   2.1870000 -32.1000000 -16.1210000   0.5110000 -29.1230000 -15.6860000
   1.1680000 -28.0870000 -15.8060000  -0.7990000 -29.1770000 -15.9270000
  -1.2880000 -30.0610000 -15.9330000  -1.5570000 -27.9620000 -16.2330000
  -1.1520000 -27.5040000 -17.1350000  -3.0420000 -28.2640000 -16.4620000
  -3.4260000 -28.6780000 -15.5300000  -3.5290000 -27.3100000 -16.6630000
  -3.3310000 -29.2340000 -17.6070000  -2.9750000 -30.2240000 -17.3220000
  -4.4090000 -29.2670000 -17.7640000  -2.6610000 -28.8330000 -18.9160000
  -2.0680000 -29.6710000 -19.6010000  -2.7560000 -27.5510000 -19.2700000
  -2.3290000 -27.2340000 -20.1290000  -3.2550000 -26.9020000 -18.6780000
  -1.4070000 -26.9580000 -15.0980000  -1.2610000 -25.7580000 -15.3350000
  -1.4470000 -27.4600000 -13.8640000  -1.6530000 -28.4390000 -13.7250000
  -1.2480000 -26.6210000 -12.6880000  -1.8630000 -25.7220000 -12.7340000
  -1.5770000 -27.3790000 -11.3800000  -0.9690000 -28.2830000 -11.3340000
  -1.2850000 -26.5070000 -10.1600000  -1.8930000 -25.6030000 -10.2050000
  -1.5240000 -27.0600000  -9.2520000  -0.2300000 -26.2340000 -10.1520000
  -3.0260000 -27.8280000 -11.3730000  -3.2060000 -28.4910000 -12.2200000
  -3.2380000 -28.3590000 -10.4450000  -3.6770000 -26.9570000 -11.4490000
   0.1920000 -26.1110000 -12.6370000   0.4330000 -24.9360000 -12.3510000
   1.1480000 -26.9980000 -12.9110000   0.9170000 -27.9660000 -13.0840000
   2.5610000 -26.6230000 -12.8440000   2.7430000 -26.0700000 -11.9230000
   3.4740000 -27.8560000 -12.8640000   3.2370000 -28.4160000 -13.7690000
   4.5010000 -27.4940000 -12.9190000   3.3200000 -28.7700000 -11.6440000
   3.1780000 -28.1390000 -10.7670000   2.4340000 -29.3860000 -11.7950000
   4.7470000 -29.8400000 -11.3790000   4.4730000 -31.1180000 -12.5710000
   4.4440000 -30.6840000 -13.5700000   5.2810000 -31.8470000 -12.5150000
   3.5240000 -31.6120000 -12.3630000   2.9730000 -25.6230000 -13.9350000
   3.9930000 -24.9470000 -13.7970000   2.1830000 -25.5180000 -15.0030000
   1.3590000 -26.0940000 -15.1000000   2.5050000 -24.5790000 -16.0800000
   3.5570000 -24.6780000 -16.3460000   1.6570000 -24.8560000 -17.3260000
   0.6170000 -24.8620000 -17.0000000   1.8190000 -24.0190000 -18.0050000
   1.9720000 -26.1660000 -18.0480000   2.9640000 -26.0980000 -18.4950000
   1.9540000 -26.9840000 -17.3280000   0.9420000 -26.4270000 -19.1380000
  -0.0430000 -26.4720000 -18.6740000   0.9730000 -25.5970000 -19.8440000
   1.2150000 -27.7250000 -19.8720000   2.2080000 -27.6730000 -20.3180000
   1.1810000 -28.5460000 -19.1560000   0.2040000 -27.9560000 -20.9400000
   0.2360000 -27.1950000 -21.6040000   0.4070000 -28.8250000 -21.4130000
  -0.7170000 -28.0040000 -20.5270000   2.2590000 -23.1560000 -15.6010000
   3.0230000 -22.2360000 -15.8980000   1.1890000 -23.0040000 -14.8290000
   0.6580000 -23.8240000 -14.5730000   0.7260000 -21.7100000 -14.3600000
   0.8390000 -20.9590000 -15.1420000  -0.7530000 -21.8100000 -13.9890000
  -0.8250000 -22.4690000 -13.1240000  -1.0850000 -20.8100000 -13.7110000
  -1.6370000 -22.3450000 -15.1110000  -1.0530000 -23.0430000 -15.7110000
  -2.4840000 -22.8680000 -14.6670000  -2.1460000 -21.2150000 -15.9990000
  -1.8580000 -20.2600000 -15.5590000  -1.6960000 -21.3100000 -16.9870000
  -3.6680000 -21.2790000 -16.1240000  -3.9130000 -22.0350000 -16.8700000
  -4.0730000 -21.5790000 -15.1570000  -4.2640000 -19.9690000 -16.5280000
  -3.8900000 -19.6910000 -17.4240000  -5.2670000 -20.0630000 -16.5970000
  -4.0380000 -19.2690000 -15.8360000   1.5210000 -21.2220000 -13.1560000
   1.6440000 -20.0170000 -12.9340000   2.0560000 -22.1560000 -12.3740000
   1.8970000 -23.1350000 -12.5620000   2.8060000 -21.7940000 -11.1710000
   2.6050000 -20.7550000 -10.9080000   2.3940000 -22.6850000  -9.9950000
   2.6450000 -23.6800000 -10.3630000   3.0150000 -22.4510000  -9.1300000
   0.9120000 -22.6490000  -9.5860000   0.3090000 -22.7230000 -10.4910000
   0.5460000 -23.7910000  -8.6340000   1.1480000 -23.7170000  -7.7290000
  -0.5100000 -23.7230000  -8.3740000   0.7390000 -24.7470000  -9.1210000
   0.5330000 -21.2980000  -8.9800000   0.7090000 -20.5090000  -9.7110000
  -0.5210000 -21.3070000  -8.7020000   1.1400000 -21.1130000  -8.0940000
   4.3220000 -21.8520000 -11.4040000   4.8570000 -22.8770000 -11.8450000
   5.0020000 -20.7440000 -11.1160000   4.5040000 -19.9230000 -10.8030000
   6.4520000 -20.6560000 -11.2740000   6.8840000 -21.6550000 -11.2180000
   6.8260000 -20.0360000 -12.6210000   6.7960000 -20.8240000 -13.3740000
   6.0820000 -19.2770000 -12.8600000   8.2170000 -19.3990000 -12.6050000
   8.1630000 -18.5060000 -11.9820000   8.9020000 -20.1160000 -12.1530000
   8.7240000 -19.0180000 -13.9990000   8.7950000 -19.9140000 -14.6160000
   8.0290000 -18.3150000 -14.4580000  10.0450000 -18.3920000 -13.9280000
  10.1580000 -17.6370000 -13.2660000  11.0920000 -18.7530000 -14.6640000
  10.9830000 -19.7400000 -15.5440000  10.1010000 -20.2190000 -15.6550000
  11.7830000 -20.0080000 -16.0990000  12.2490000 -18.1190000 -14.5230000
  12.3300000 -17.3640000 -13.8570000  13.0440000 -18.3940000 -15.0830000
   7.0790000 -19.8330000 -10.1550000   6.8650000 -18.6220000 -10.0570000
   7.8740000 -20.4840000  -9.3190000   8.0890000 -21.4620000  -9.4480000
   8.4390000 -19.7990000  -8.1660000   8.7210000 -18.7800000  -8.4320000
   7.4000000 -19.7420000  -7.0490000   6.4550000 -19.3390000  -7.4140000
   7.2410000 -20.7510000  -6.6690000   7.8000000 -18.9020000  -5.8780000
   8.4590000 -19.4190000  -4.7790000   8.6680000 -18.4570000  -3.9000000
   9.1830000 -18.6650000  -2.9620000   8.1630000 -17.3340000  -4.3820000
   8.1740000 -16.4330000  -3.9250000   7.6130000 -17.5850000  -5.6170000
   7.1420000 -16.7780000  -6.1780000   9.6680000 -20.5600000  -7.7350000
   9.7450000 -21.7720000  -7.9490000  10.6330000 -19.8660000  -7.1410000
  10.5400000 -18.8740000  -6.9760000  11.8840000 -20.5170000  -6.7590000
  12.3350000 -20.9880000  -7.6320000  12.8670000 -19.5010000  -6.1920000
  13.7890000 -20.0290000  -5.9480000  13.0670000 -18.7610000  -6.9670000
  12.3380000 -18.8000000  -4.9450000  11.6480000 -18.0220000  -5.2720000
  11.8000000 -19.5330000  -4.3430000  13.4440000 -18.1780000  -4.1150000
  14.6140000 -18.6120000  -4.2690000  13.1370000 -17.2650000  -3.3080000
  11.6710000 -21.6410000  -5.7340000  12.4750000 -22.5800000  -5.6520000
  10.5930000 -21.5410000  -4.9560000   9.9860000 -20.7360000  -5.0200000
  10.3200000 -22.5350000  -3.9160000  11.1840000 -23.1890000  -3.7960000
  10.0370000 -21.8530000  -2.5830000   9.1550000 -21.2240000  -2.7060000
   9.8300000 -22.6280000  -1.8450000  11.2100000 -20.9970000  -2.1070000
  11.4150000 -20.2370000  -2.8610000  10.9310000 -20.5130000  -1.1710000
  12.4600000 -21.8460000  -1.8870000  12.2490000 -22.6220000  -1.1510000
  12.7560000 -22.3100000  -2.8280000  13.5950000 -20.9550000  -1.3780000
  13.8110000 -20.2050000  -2.1390000  13.2610000 -20.4600000  -0.4660000
  14.8190000 -21.7370000  -1.0950000  15.1290000 -22.1950000  -1.9400000
  15.5440000 -21.1180000  -0.7620000  14.6190000 -22.4320000  -0.3900000
   9.1960000 -23.4960000  -4.2740000   8.6510000 -24.1800000  -3.3980000
   8.8520000 -23.5520000  -5.5580000   9.2010000 -22.8590000  -6.2050000
   7.9930000 -24.6100000  -6.0750000   7.6590000 -25.2380000  -5.2490000
   6.7660000 -24.0420000  -6.7830000   7.2300000 -23.5360000  -7.6300000
   6.2050000 -24.9060000  -7.1390000   5.8160000 -23.0750000  -6.0690000
   6.2020000 -22.0590000  -6.1540000   4.4370000 -23.1490000  -6.7070000
   4.0510000 -24.1650000  -6.6220000   3.7630000 -22.4600000  -6.1980000
   4.5080000 -22.8750000  -7.7600000   5.7080000 -23.3250000  -4.5760000
   6.6900000 -23.2160000  -4.1170000   5.0190000 -22.6040000  -4.1350000
   5.3370000 -24.3350000  -4.4020000   8.8370000 -25.3900000  -7.0800000
   9.6100000 -24.7800000  -7.8410000   8.7190000 -26.7200000  -7.0890000
   8.1310000 -27.2030000  -6.4250000   9.4900000 -27.5170000  -8.0380000
  10.5480000 -27.2690000  -7.9520000   9.3210000 -29.0340000  -7.8270000
   8.2770000 -29.3080000  -7.9830000  10.2000000 -29.7920000  -8.8220000
  11.2440000 -29.5190000  -8.6670000  10.0790000 -30.8650000  -8.6710000
   9.9050000 -29.5330000  -9.8390000   9.6960000 -29.4180000  -6.3960000
   9.0500000 -28.8880000  -5.6960000   9.5710000 -30.4930000  -6.2630000
  10.7350000 -29.1470000  -6.2070000   9.0730000 -27.1430000  -9.4600000
   7.8830000 -27.0330000  -9.7570000  10.0520000 -26.9450000 -10.3360000
  11.0120000 -27.1230000 -10.0770000   9.7830000 -26.3850000 -11.6660000
   8.9120000 -25.7300000 -11.6320000  10.9940000 -25.5660000 -12.1300000
  11.1300000 -24.7790000 -11.3880000  11.8470000 -26.2440000 -12.1000000
  10.8880000 -24.9390000 -13.5250000  10.6670000 -25.7190000 -14.2540000
  10.0820000 -24.2050000 -13.5230000  12.1860000 -24.2390000 -13.9350000
  13.1200000 -24.1020000 -13.1320000  12.2490000 -23.7970000 -15.1900000
  13.0820000 -23.3270000 -15.5160000  11.4640000 -23.9340000 -15.8100000
   9.4210000 -27.4480000 -12.7060000  10.1320000 -28.4470000 -12.8790000
   8.2960000 -27.2450000 -13.3810000   7.6570000 -26.5140000 -13.1040000
   7.9450000 -28.0710000 -14.5330000   8.0280000 -29.1260000 -14.2710000
   6.5110000 -27.7890000 -14.9730000   5.9040000 -28.1680000 -14.1510000
   6.3810000 -26.7100000 -15.0520000   6.0720000 -28.4530000 -16.2800000
   6.8760000 -28.3580000 -17.0100000   5.7590000 -29.9220000 -16.0610000
   4.9550000 -30.0180000 -15.3320000   5.4490000 -30.3730000 -17.0040000
   6.6480000 -30.4320000 -15.6900000   4.8720000 -27.7450000 -16.8750000
   5.1280000 -26.7060000 -17.0810000   4.5820000 -28.2380000 -17.8030000
   4.0420000 -27.7810000 -16.1700000   8.8970000 -27.7650000 -15.6910000
   9.1720000 -26.5970000 -15.9760000   9.4020000 -28.8000000 -16.3580000
   9.2260000 -29.7450000 -16.0480000  10.2780000 -28.6000000 -17.5180000
  10.5960000 -27.5580000 -17.5550000  11.5210000 -29.4880000 -17.4380000
  11.1870000 -30.4720000 -17.1100000  11.9350000 -29.5620000 -18.4440000
  12.5800000 -28.9780000 -16.4950000  12.4180000 -27.7730000 -15.8240000
  11.5080000 -27.1960000 -15.9880000  13.3920000 -27.3010000 -14.9560000
  13.2590000 -26.3520000 -14.4370000  14.5380000 -28.0390000 -14.7580000
  15.5050000 -27.5730000 -13.8890000  15.2730000 -26.7340000 -13.4850000
  14.7180000 -29.2410000 -15.4170000  15.6230000 -29.8260000 -15.2560000
  13.7470000 -29.6980000 -16.2800000  13.8880000 -30.6410000 -16.8090000
   9.5740000 -28.8550000 -18.8510000   9.7580000 -28.1020000 -19.8120000
   8.7760000 -29.9180000 -18.9100000   8.5950000 -30.4740000 -18.0860000
   8.1810000 -30.3410000 -20.1760000   7.6900000 -29.4840000 -20.6360000
   9.2610000 -30.8470000 -21.1200000   9.7560000 -31.7110000 -20.6770000
   8.8090000 -31.1350000 -22.0690000   9.9930000 -30.0580000 -21.2920000
   7.1320000 -31.4180000 -19.9700000   7.1590000 -32.1330000 -18.9670000
   6.2140000 -31.5310000 -20.9270000   6.1590000 -30.8410000 -21.6620000
   5.2510000 -32.6260000 -20.9330000   5.5090000 -33.3790000 -20.1890000
   3.8200000 -32.1340000 -20.6580000   3.1580000 -32.9960000 -20.5750000
   3.7740000 -31.3340000 -19.3680000   4.4360000 -30.4720000 -19.4510000
   2.7550000 -30.9930000 -19.1880000   4.0990000 -31.9620000 -18.5390000
   3.3180000 -31.2950000 -21.8300000   3.3190000 -31.8990000 -22.7370000
   2.3040000 -30.9520000 -21.6240000   3.9710000 -30.4330000 -21.9670000
   5.2730000 -33.3420000 -22.2780000   5.6130000 -32.7450000 -23.3020000
   4.9110000 -34.6220000 -22.2650000   4.6940000 -35.0650000 -21.3840000
   4.8260000 -35.4240000 -23.4820000   4.9270000 -34.8160000 -24.3810000
   5.9090000 -36.5140000 -23.5020000   5.7810000 -37.1590000 -22.6320000
   5.8000000 -37.3470000 -24.7710000   5.9290000 -36.7030000 -25.6410000
   6.5740000 -38.1150000 -24.7700000   4.8190000 -37.8210000 -24.8120000
   7.2940000 -35.8850000 -23.3730000   7.3580000 -35.3360000 -22.4330000
   8.0520000 -36.6680000 -23.3890000   7.4620000 -35.2010000 -24.2050000
   3.4470000 -36.0720000 -23.5420000   3.1960000 -37.0710000 -22.8600000
   2.5560000 -35.5030000 -24.3510000   2.8440000 -34.7600000 -24.9710000
   1.1320000 -35.8590000 -24.3060000   0.8850000 -36.2800000 -23.3320000
   0.2670000 -34.6130000 -24.5350000   0.4390000 -34.2550000 -25.5500000
  -0.7800000 -34.8940000 -24.4220000   0.5820000 -33.5860000 -23.6130000
   0.0250000 -32.8220000 -23.7820000   0.6880000 -36.9590000 -25.2750000
  -0.4550000 -36.9540000 -25.7350000   1.5800000 -37.8980000 -25.5770000
   2.5340000 -37.8070000 -25.2580000   1.2470000 -39.0170000 -26.4620000
   0.2010000 -39.2920000 -26.3280000   1.4690000 -38.6330000 -27.9300000
   0.4830000 -38.4350000 -28.3490000   2.0520000 -37.7120000 -27.9230000
   2.1810000 -39.6780000 -28.7800000   2.1680000 -40.6190000 -28.2300000
   1.6230000 -39.7940000 -29.7090000   3.6190000 -39.2950000 -29.0960000
   4.0810000 -38.2510000 -28.5890000   4.2880000 -40.0340000 -29.8530000
   2.0270000 -40.2770000 -26.0720000   3.2580000 -40.2560000 -25.9900000
   1.2950000 -41.3630000 -25.8250000   0.2990000 -41.3260000 -25.9890000
   1.8570000 -42.5790000 -25.2200000   2.1890000 -42.3670000 -24.2040000
   0.8030000 -43.6860000 -25.1690000   0.2590000 -43.6590000 -26.1130000
   1.3340000 -44.6340000 -25.0830000  -0.1740000 -43.5490000 -24.0200000
   0.3600000 -43.7530000 -23.0920000  -0.5360000 -42.5210000 -24.0110000
  -1.3480000 -44.4960000 -24.1450000  -2.0390000 -44.4510000 -25.1820000
  -1.5760000 -45.2880000 -23.2090000   3.1310000 -43.1270000 -25.8630000
   3.2610000 -43.1290000 -27.0900000   4.0840000 -43.5800000 -25.0230000
   5.1900000 -44.4760000 -25.4060000   6.0150000 -43.8870000 -25.8080000
   4.8440000 -45.1800000 -26.1630000   5.5440000 -45.1580000 -24.1030000
   6.5990000 -45.4300000 -24.0980000   4.9370000 -46.0540000 -23.9730000
   5.2380000 -44.1540000 -23.0520000   6.0760000 -43.4600000 -22.9870000
   5.0410000 -44.5780000 -22.0670000   3.9930000 -43.4210000 -23.5640000
   3.0560000 -43.8650000 -23.2290000   4.0370000 -41.9470000 -23.1470000
   4.6230000 -41.1170000 -23.8490000   3.4130000 -41.6300000 -22.0170000
   2.9540000 -42.3510000 -21.4790000   3.2940000 -40.2470000 -21.5650000
   3.6440000 -39.5480000 -22.3250000   1.8340000 -39.9150000 -21.1950000
   1.4480000 -40.7030000 -20.5490000   1.7460000 -38.5780000 -20.4720000
   2.1310000 -37.7890000 -21.1180000   0.7060000 -38.3670000 -20.2220000
   2.3380000 -38.6190000 -19.5580000   0.9670000 -39.9190000 -22.4570000
   1.5390000 -39.4210000 -23.2400000   0.8070000 -40.9620000 -22.7320000
  -0.3670000 -39.2320000 -22.2940000  -0.2080000 -38.1890000 -22.0190000
  -0.9180000 -39.2800000 -23.2330000  -0.9400000 -39.7300000 -21.5120000
   4.2210000 -39.9290000 -20.3900000   4.4600000 -40.7770000 -19.5260000
   4.7400000 -38.7030000 -20.3690000   4.5380000 -38.0570000 -21.1190000
   5.6200000 -38.2620000 -19.2950000   5.5220000 -38.9300000 -18.4390000
   7.0770000 -38.2730000 -19.7590000   7.1330000 -37.5710000 -20.5910000
   7.6740000 -37.8980000 -18.9270000   7.6120000 -39.6180000 -20.1970000
   7.2230000 -40.7890000 -19.5620000   6.5180000 -40.7310000 -18.7330000
   7.7170000 -42.0210000 -19.9680000   7.4000000 -42.9330000 -19.4620000
   8.6160000 -42.0890000 -21.0160000   9.1170000 -43.3030000 -21.4320000
   8.7760000 -44.0430000 -20.9250000   9.0190000 -40.9370000 -21.6580000
   9.7270000 -40.9860000 -22.4850000   8.5190000 -39.7140000 -21.2470000
   8.8350000 -38.7990000 -21.7490000   5.2860000 -36.8520000 -18.8060000
   4.7030000 -36.0450000 -19.5430000   5.6400000 -36.5780000 -17.5500000
   5.8100000 -37.3380000 -16.9060000   5.7960000 -35.2130000 -17.0640000
   5.5270000 -34.5290000 -17.8680000   4.9360000 -34.9110000 -15.8250000
   5.3080000 -35.4980000 -14.9850000   4.9980000 -33.4360000 -15.4770000
   4.6260000 -32.8480000 -16.3160000   4.3830000 -33.2430000 -14.5980000
   6.0300000 -33.1550000 -15.2670000   3.4860000 -35.3040000 -16.0740000
   3.2400000 -35.0240000 -17.0980000   3.4150000 -36.3860000 -15.9670000
   2.5180000 -34.6400000 -15.1250000   2.5880000 -33.5580000 -15.2320000
   1.5030000 -34.9620000 -15.3560000   2.7630000 -34.9200000 -14.1000000
   7.2760000 -35.0910000 -16.7160000   7.9000000 -36.0660000 -16.2890000
   7.8570000 -33.9160000 -16.9260000   7.3260000 -33.1230000 -17.2560000
   9.2900000 -33.7440000 -16.7000000   9.7180000 -34.5820000 -16.1510000
  10.0460000 -33.5920000 -18.0350000   9.7620000 -32.6450000 -18.4940000
  11.5580000 -33.6150000 -17.8100000  11.8430000 -34.5620000 -17.3510000
  12.0700000 -33.5060000 -18.7660000  11.8400000 -32.7930000 -17.1520000
   9.6290000 -34.6900000 -19.0030000   8.5570000 -34.6220000 -19.1900000
  10.1700000 -34.5720000 -19.9420000   9.8610000 -35.6630000 -18.5710000
   9.5310000 -32.5070000 -15.8460000   8.9870000 -31.4420000 -16.1360000
  10.3460000 -32.6350000 -14.8020000  10.8290000 -33.5040000 -14.6240000
  10.5820000 -31.5120000 -13.8940000  10.2940000 -30.5750000 -14.3700000
   9.7880000 -31.6630000 -12.5850000   9.8040000 -30.7120000 -12.0530000
   8.3540000 -32.0600000 -12.8650000   8.3370000 -33.0120000 -13.3960000
   7.8140000 -32.1600000 -11.9240000   7.8770000 -31.2940000 -13.4770000
  10.4140000 -32.6530000 -11.7590000   9.9190000 -32.7480000 -10.9420000
  12.0450000 -31.4320000 -13.5170000  12.8270000 -32.3380000 -13.8340000
  12.4230000 -30.3630000 -12.8210000  11.8300000 -29.5530000 -12.7080000
  13.7660000 -30.3200000 -12.2580000  14.4950000 -30.4320000 -13.0600000
  14.0330000 -28.9980000 -11.5350000  15.1090000 -28.9470000 -11.3690000
  13.7330000 -28.2040000 -12.2190000  13.3100000 -28.8270000 -10.2160000
  12.2420000 -28.8620000 -10.4320000  13.5750000 -29.6570000  -9.5600000
  13.6450000 -27.5140000  -9.5310000  14.8000000 -27.3330000  -9.0970000
  12.7380000 -26.6700000  -9.4090000  13.9610000 -31.5030000 -11.3180000
  12.9870000 -32.1510000 -10.9060000  15.2160000 -31.7920000 -10.9910000
  15.9700000 -31.2130000 -11.3320000  15.5490000 -32.9370000 -10.1530000
  14.6950000 -33.6110000 -10.0870000  16.7330000 -33.7040000 -10.7540000
  16.4640000 -33.9760000 -11.7740000  17.5750000 -33.0120000 -10.7730000
  17.1220000 -34.9530000  -9.9830000  16.3340000 -36.0970000 -10.0340000
  15.4280000 -36.0810000 -10.6400000  16.6790000 -37.2420000  -9.3340000
  16.0430000 -38.1260000  -9.3810000  17.8250000 -37.2600000  -8.5770000
  18.1610000 -38.4080000  -7.8820000  17.5270000 -39.1190000  -8.0030000
  18.6340000 -36.1400000  -8.5150000  19.5460000 -36.1560000  -7.9190000
  18.2810000 -34.9930000  -9.2150000  18.9160000 -34.1080000  -9.1670000
  15.9130000 -32.4660000  -8.7580000  16.8290000 -31.6550000  -8.5910000
  15.2070000 -32.9760000  -7.7520000  14.4000000 -33.5590000  -7.9240000
  15.5310000 -32.6340000  -6.3710000  16.1400000 -31.7300000  -6.3450000
  14.2530000 -32.3840000  -5.5750000  13.7090000 -33.3270000  -5.5180000
  14.5430000 -32.0710000  -4.5720000  13.3560000 -31.3150000  -6.2030000
  13.1180000 -31.6280000  -7.2200000  12.4390000 -31.2570000  -5.6170000
  14.1380000 -29.6800000  -6.2500000  14.3880000 -29.3850000  -4.5010000
  15.0280000 -30.1650000  -4.0880000  14.8630000 -28.4140000  -4.3600000
  13.4260000 -29.3960000  -3.9890000  16.3880000 -33.7380000  -5.7420000
  15.9050000 -34.8410000  -5.4780000  17.6590000 -33.4350000  -5.4920000
  17.9960000 -32.4910000  -5.6150000  18.6360000 -34.4900000  -5.2050000
  18.5490000 -35.2840000  -5.9460000  20.0640000 -33.9300000  -5.2520000
  20.7610000 -34.7670000  -5.1990000  20.1950000 -33.4080000  -6.2000000
  20.3180000 -33.0370000  -4.1830000  21.2180000 -32.7090000  -4.2470000
  18.4180000 -35.3160000  -3.9240000  18.9190000 -36.4380000  -3.8210000
  17.6890000 -34.7890000  -2.9460000  17.3450000 -33.8400000  -2.9840000
  17.5600000 -35.5250000  -1.6840000  18.1780000 -36.4220000  -1.7260000
  18.0080000 -34.6760000  -0.4850000  17.3410000 -33.8160000  -0.4280000
  17.8880000 -35.2880000   0.4090000  19.4630000 -34.1900000  -0.5820000
  19.8870000 -34.5850000  -1.5050000  19.4500000 -33.1010000  -0.6250000
  20.3160000 -34.6430000   0.6060000  20.8030000 -33.7620000   1.0230000
  19.6480000 -35.0750000   1.3510000  21.3840000 -35.6810000   0.2100000
  21.5290000 -36.3420000   1.0640000  20.9870000 -36.2530000  -0.6290000
  22.6970000 -35.0720000  -0.1780000  23.0650000 -34.5420000   0.5990000
  23.3480000 -35.8040000  -0.4250000  22.5630000 -34.4600000  -0.9700000
  16.2060000 -36.1920000  -1.4370000  16.0070000 -36.8180000  -0.3950000
  15.2960000 -36.1040000  -2.4050000  15.4910000 -35.5860000  -3.2500000
  13.9950000 -36.7510000  -2.2750000  13.5320000 -36.7910000  -3.2610000
  14.1520000 -37.7650000  -1.9070000  13.0680000 -36.0190000  -1.3240000
  13.2840000 -34.8380000  -1.0200000  12.0290000 -36.7020000  -0.8480000
  11.8730000 -37.6730000  -1.0790000  11.0480000 -36.0260000  -0.0100000
  10.7090000 -35.1280000  -0.5270000   9.8280000 -36.9010000   0.3040000
   9.0820000 -36.2900000   0.8110000   9.4150000 -37.2740000  -0.6340000
  10.1850000 -37.9990000   1.1340000   9.4060000 -38.5300000   1.3150000
  11.6810000 -35.5780000   1.2820000  12.6580000 -36.1370000   1.7610000
  11.1040000 -34.5270000   1.8250000  10.3590000 -34.0690000   1.3200000
  11.5000000 -33.9850000   3.0920000  12.5570000 -33.7210000   3.1060000
  10.6760000 -32.7130000   3.2950000  11.0830000 -31.9790000   2.6000000
   9.6360000 -32.9160000   3.0390000  10.7510000 -32.1710000   4.7000000
  10.3430000 -32.8990000   5.4010000  12.2090000 -31.9030000   5.0400000
  12.6180000 -31.1750000   4.3400000  12.2800000 -31.5100000   6.0540000
  12.7760000 -32.8320000   4.9700000   9.9140000 -30.9210000   4.7760000
   8.8810000 -31.1590000   4.5240000   9.9570000 -30.5150000   5.7870000
  10.2980000 -30.1830000   4.0720000  11.2410000 -35.0160000   4.2040000
  11.9780000 -35.1100000   5.1950000  10.1870000 -35.7990000   4.0260000
   9.6130000 -35.6990000   3.2010000   9.8320000 -36.8280000   4.9930000
   9.6300000 -36.3760000   5.9640000   8.5720000 -37.5700000   4.5260000
   8.1170000 -36.8190000   3.8810000   8.9190000 -38.4060000   3.9200000
   7.5400000 -38.0670000   5.5340000   6.8400000 -37.2620000   5.7560000
   6.7750000 -39.2650000   4.9570000   7.4750000 -40.0710000   4.7350000
   6.0410000 -39.6120000   5.6840000   6.2650000 -38.9640000   4.0420000
   8.1840000 -38.4150000   6.8410000   8.6740000 -37.5320000   7.2520000
   7.4240000 -38.7660000   7.5390000   8.9230000 -39.2000000   6.6850000
  10.9770000 -37.8230000   5.1030000  11.4140000 -38.1530000   6.2180000
  11.4320000 -38.3200000   3.9510000  10.9950000 -38.0620000   3.0780000
  12.5390000 -39.2920000   3.9180000  12.2940000 -40.1390000   4.5590000
  12.7910000 -39.8090000   2.4980000  12.9260000 -38.9500000   1.8400000
  13.7080000 -40.3970000   2.5200000  11.6510000 -40.6690000   1.9790000
  10.6880000 -40.9350000   2.7360000  11.7110000 -41.0780000   0.7990000
  13.8070000 -38.6810000   4.4680000  14.5470000 -39.3250000   5.2000000
  14.0550000 -37.4220000   4.1230000  13.4360000 -36.9470000   3.4820000
  15.2280000 -36.7020000   4.6160000  16.1410000 -37.2160000   4.3140000
  15.2450000 -35.2760000   4.0230000  15.0670000 -35.2940000   2.9480000
  14.4700000 -34.6840000   4.5090000  16.5450000 -34.5410000   4.2330000
  17.6940000 -34.9210000   3.5460000  17.6480000 -35.7660000   2.8590000
  18.9040000 -34.2300000   3.7300000  19.7990000 -34.5400000   3.1910000
  18.9580000 -33.1390000   4.6100000  19.8920000 -32.5980000   4.7620000
  17.8070000 -32.7480000   5.2930000  17.8360000 -31.9010000   5.9780000
  16.6080000 -33.4500000   5.0950000  15.7040000 -33.1440000   5.6210000
  15.2340000 -36.6320000   6.1310000  16.2160000 -37.0000000   6.7690000
  14.1290000 -36.1620000   6.7140000  13.3570000 -35.8560000   6.1390000
  14.0080000 -36.0280000   8.1690000  14.7900000 -35.3670000   8.5420000
  12.6460000 -35.4390000   8.5510000  11.9540000 -36.0620000   7.9840000
  12.4950000 -35.6070000   9.6170000  12.3910000 -33.9700000   8.2260000
  12.6550000 -33.7890000   7.1840000  10.9060000 -33.6090000   8.4510000
  10.6420000 -33.7890000   9.4930000  10.7470000 -32.5570000   8.2130000
  10.2800000 -34.2250000   7.8060000  13.3230000 -33.0950000   9.0670000
  14.3590000 -33.3440000   8.8390000  13.1430000 -32.0450000   8.8370000
  13.1320000 -33.2720000  10.1250000  14.1870000 -37.3450000   8.9200000
  14.7540000 -37.3610000  10.0180000  13.6940000 -38.4350000   8.3410000
  13.1960000 -38.3680000   7.4650000  13.8370000 -39.7600000   8.9610000
  13.7200000 -39.6810000  10.0420000  12.7660000 -40.7070000   8.4220000
  12.9010000 -40.7360000   7.3410000  12.9870000 -41.6880000   8.8420000
  11.3040000 -40.3250000   8.7480000  11.1040000 -40.5840000   9.7880000
  11.1910000 -39.2490000   8.6140000  10.3190000 -41.0550000   7.8450000
   9.3190000 -40.6800000   8.0620000  10.5750000 -40.8270000   6.8100000
  10.3520000 -42.5800000   8.0570000   9.6500000 -43.0410000   7.3630000
  11.3600000 -42.9370000   7.8450000   9.9800000 -42.9430000   9.4540000
   9.0460000 -42.6120000   9.6500000  10.0110000 -43.9470000   9.5610000
  10.6310000 -42.5160000  10.0970000  15.2330000 -40.3530000   8.6740000
  15.7140000 -41.2270000   9.4010000  15.8800000 -39.8690000   7.6200000
  15.4650000 -39.1200000   7.0840000  17.1790000 -40.3810000   7.2020000
  17.0680000 -41.4590000   7.0890000  17.3930000 -39.9350000   6.2310000
  18.3410000 -40.0990000   8.1430000  18.1710000 -39.5380000   9.2250000
  19.5380000 -40.5000000   7.7220000  19.6280000 -40.9580000   6.8260000
  20.7400000 -40.3320000   8.5390000  20.6100000 -40.8400000   9.4950000
  21.9600000 -40.9290000   7.8290000  21.9320000 -42.0100000   7.9700000
  21.8740000 -40.6990000   6.7670000  23.2860000 -40.3790000   8.3640000
  23.0920000 -39.3540000   8.6790000  23.5760000 -40.9750000   9.2290000
  24.4190000 -40.3900000   7.3330000  24.6550000 -41.4430000   6.6990000
  25.0890000 -39.3400000   7.1730000  21.0260000 -38.8640000   8.8590000
  21.5110000 -38.5420000   9.9370000  20.7370000 -37.9690000   7.9190000
  20.3650000 -38.2400000   7.0200000  20.9930000 -36.5500000   8.1640000
  21.9960000 -36.4310000   8.5740000  20.8840000 -35.7170000   6.8920000
  19.8450000 -35.4220000   6.7430000  21.7540000 -34.4700000   7.0120000
  22.7930000 -34.7640000   7.1610000  21.6710000 -33.8790000   6.1000000
  21.4200000 -33.8740000   7.8610000  21.3140000 -36.4930000   5.7700000
  21.2440000 -35.9660000   4.9710000  20.0280000 -35.9700000   9.1960000
  20.4290000 -35.1770000  10.0650000  18.7640000 -36.3850000   9.1090000
  18.5270000 -37.1150000   8.4530000  17.7010000 -35.8230000   9.9300000
  17.4120000 -34.8740000   9.4790000  16.8600000 -36.5150000   9.8890000
  18.0740000 -35.5870000  11.3780000  17.7120000 -34.5570000  11.9620000
  18.8040000 -36.5290000  11.9690000  19.0800000 -37.3690000  11.4810000
  19.1400000 -36.4090000  13.3810000  18.2380000 -36.1750000  13.9470000
  19.7400000 -37.7110000  13.9300000  19.9510000 -37.5390000  14.9850000
  18.9700000 -38.4760000  13.8340000  21.0060000 -38.1770000  13.2300000
  20.7460000 -38.5260000  12.2310000  21.6940000 -37.3350000  13.1520000
  21.6780000 -39.3160000  14.0110000  22.2980000 -38.8930000  14.8010000
  20.9100000 -39.9510000  14.4530000  22.5430000 -40.1440000  13.0790000
  23.3540000 -39.5210000  12.7010000  22.9600000 -40.9840000  13.6350000
  21.7350000 -40.6580000  11.9330000  21.3490000 -39.8800000  11.4170000
  22.3250000 -41.2060000  11.3240000  20.9840000 -41.2360000  12.2830000
  20.0790000 -35.2370000  13.6640000  20.1400000 -34.7360000  14.7980000
  20.8160000 -34.7900000  12.6580000  20.8790000 -35.2630000  11.7680000
  21.7310000 -33.6710000  12.9180000  22.0220000 -33.6810000  13.9680000
  22.9950000 -33.7670000  12.0590000  22.7550000 -33.6770000  11.0000000
  23.6290000 -32.9330000  12.3590000  23.7280000 -35.0710000  12.3020000
  24.5330000 -35.2450000  13.4200000  24.6510000 -34.4160000  14.1180000
  25.1890000 -36.4620000  13.6590000  25.8330000 -36.5820000  14.5300000
  25.0220000 -37.5080000  12.7760000  25.6580000 -38.7210000  13.0000000
  26.1900000 -38.7240000  13.7990000  24.2100000 -37.3580000  11.6650000
  24.0780000 -38.1840000  10.9660000  23.5630000 -36.1500000  11.4420000
  22.9090000 -36.0330000  10.5780000  21.0350000 -32.3100000  12.8280000
  21.4500000 -31.3540000  13.4750000  19.9590000 -32.2370000  12.0550000
  19.6950000 -33.0190000  11.4730000  19.1680000 -31.0060000  11.9670000
  19.7570000 -30.2160000  11.5010000  17.9150000 -31.2470000  11.1200000
  17.4190000 -32.0830000  11.6130000  17.2480000 -30.3850000  11.1080000
  18.2650000 -31.6370000   9.6900000  19.0100000 -32.4330000   9.7140000
  17.0330000 -32.1200000   8.9490000  16.2880000 -31.3250000   8.9250000
  17.3050000 -32.3930000   7.9300000  16.6190000 -32.9890000   9.4600000
  18.9720000 -30.4680000   8.9530000  19.8900000 -30.2080000   9.4790000
  19.2110000 -30.7720000   7.9340000  18.3110000 -29.6010000   8.9270000
  18.7780000 -30.4600000  13.3440000  18.2710000 -31.1860000  14.2070000
  19.0440000 -29.1770000  13.5540000  19.6390000 -28.6620000  12.9210000
  18.5690000 -28.5070000  14.7500000  18.0120000 -29.2110000  15.3690000
  19.7500000 -27.9570000  15.5710000  20.3690000 -27.3720000  14.8910000
  19.3320000 -27.3020000  16.3360000  20.6090000 -29.0420000  16.2400000
  20.8950000 -29.7870000  15.4970000  21.5050000 -28.5860000  16.6610000
  19.8090000 -29.7150000  17.3540000  19.6270000 -28.9710000  18.1290000
  18.8580000 -30.0390000  16.9320000  20.4710000 -30.8710000  17.9600000
  20.9410000 -30.7200000  18.8410000  20.4820000 -32.0990000  17.4340000
  19.8820000 -32.3480000  16.2720000  19.4120000 -31.6020000  15.7800000
  19.9000000 -33.2820000  15.8880000  21.1080000 -33.0890000  18.0660000
  21.5740000 -32.9090000  18.9440000  21.1140000 -34.0160000  17.6650000
  17.5640000 -27.4130000  14.3370000  17.3340000 -27.1910000  13.1300000
  16.9770000 -26.7590000  15.3360000  17.2300000 -26.9920000  16.2860000
  15.8740000 -25.8220000  15.1220000  15.0430000 -26.3570000  14.6610000
  15.3820000 -25.1840000  16.4310000  15.3170000 -26.0180000  17.1290000
  16.1320000 -24.4750000  16.7820000  14.0150000 -24.4830000  16.3420000
  14.0620000 -23.7490000  15.5370000  12.8680000 -25.4770000  16.0650000
  12.8200000 -26.2110000  16.8690000  11.9230000 -24.9360000  16.0110000
  13.0490000 -25.9870000  15.1190000  13.7440000 -23.7140000  17.6200000
  14.5220000 -22.9650000  17.7660000  12.7750000 -23.2210000  17.5490000
  13.7400000 -24.4030000  18.4650000  16.1700000 -24.7560000  14.0820000
  15.3170000 -24.4870000  13.2550000  17.3780000 -24.1540000  14.1120000
  18.4250000 -24.2050000  15.1510000  18.9580000 -25.1540000  15.0850000
  17.9660000 -24.1140000  16.1360000  19.3090000 -23.0130000  14.8100000
  20.3390000 -23.2110000  15.1060000  18.9500000 -22.1200000  15.3210000
  19.1860000 -22.8660000  13.3340000  19.8190000 -23.5900000  12.8210000
  19.4200000 -21.8630000  12.9780000  17.7040000 -23.1850000  13.0670000
  17.0660000 -22.3130000  13.2140000  17.5010000 -23.7290000  11.6630000
  16.9450000 -23.0030000  10.8340000  17.9340000 -24.9560000  11.3850000
  18.4430000 -25.5000000  12.0670000  17.7410000 -25.5230000  10.0470000
  18.0260000 -24.7830000   9.2990000  18.5920000 -26.7860000   9.8380000
  18.3330000 -27.4670000  10.6480000  18.2750000 -27.2150000   8.8880000
  20.1160000 -26.5680000   9.8190000  20.5820000 -27.4570000   9.3930000
  20.3500000 -25.7030000   9.1990000  20.6850000 -26.3390000  11.2030000
  20.2430000 -26.9510000  12.1670000  21.6590000 -25.4450000  11.3120000
  22.0700000 -25.2580000  12.2150000  21.9850000 -24.9550000  10.4910000
  16.2600000 -25.8470000   9.7740000  15.7720000 -25.7060000   8.6490000
  15.5410000 -26.2950000  10.7950000  15.9220000 -26.3920000  11.7250000
  14.1620000 -26.7190000  10.5630000  14.1080000 -27.3370000   9.6670000
  13.6580000 -27.5330000  11.7470000  13.8150000 -26.8660000  12.5950000
  12.5940000 -27.7470000  11.6460000  14.4190000 -28.8370000  11.9770000
  15.4720000 -28.6700000  11.7500000  14.2790000 -29.3110000  13.4190000
  13.2260000 -29.4790000  13.6460000  14.8320000 -30.2410000  13.5520000
  14.6790000 -28.5520000  14.0920000  13.9640000 -29.9120000  10.9760000
  14.1540000 -29.5670000   9.9600000  14.5170000 -30.8340000  11.1550000
  12.8980000 -30.0990000  11.1020000  13.2520000 -25.5090000  10.3190000
  12.3150000 -25.5740000   9.5270000  13.5210000 -24.4150000  11.0080000
  14.2500000 -24.4080000  11.7080000  12.7090000 -23.2120000  10.8420000
  11.6460000 -23.4510000  10.8080000  12.9500000 -22.2050000  11.9760000
  14.0240000 -22.1270000  12.1460000  12.3750000 -20.7960000  11.6220000
  11.3010000 -20.8730000  11.4520000  12.5630000 -20.1090000  12.4470000
  12.8590000 -20.4220000  10.7200000  12.3340000 -22.7330000  13.2360000
  12.7900000 -23.6900000  13.4910000  12.5000000 -22.0240000  14.0470000
  11.2630000 -22.8700000  13.0880000  12.9870000 -22.6090000   9.4870000
  12.0680000 -22.1070000   8.8240000  14.2370000 -22.7030000   9.0430000
  14.9730000 -23.0990000   9.6100000  14.5860000 -22.1700000   7.7310000
  14.2290000 -21.1430000   7.6540000  16.0890000 -22.1800000   7.5050000
  16.5170000 -21.5320000   8.2700000  16.4840000 -23.1890000   7.6220000
  16.4520000 -21.6530000   6.1390000  16.5240000 -20.4140000   5.9950000
  16.6170000 -22.4690000   5.1980000  13.8960000 -22.9460000   6.6240000
  13.3540000 -22.3550000   5.6790000  13.9160000 -24.2720000   6.7450000
  14.4760000 -24.7120000   7.4610000  13.1890000 -25.1200000   5.8250000
  13.5660000 -24.9670000   4.8140000  13.3540000 -26.6040000   6.1910000
  13.0960000 -26.7200000   7.2440000  12.6570000 -27.1790000   5.5810000
  14.7730000 -27.1120000   5.9570000  14.9960000 -27.0180000   4.8940000
  15.4570000 -26.4840000   6.5290000  14.9880000 -28.8360000   6.4590000
  16.2050000 -28.6220000   7.7390000  15.8020000 -27.9770000   8.5200000
  16.4590000 -29.5920000   8.1650000  17.1000000 -28.1650000   7.3170000
  11.7120000 -24.7550000   5.7940000  11.1400000 -24.6540000   4.7160000
  11.1030000 -24.5900000   6.9710000  11.6210000 -24.7310000   7.8260000
   9.6840000 -24.2430000   7.0680000   9.0840000 -24.9470000   6.4920000
   9.2190000 -24.2780000   8.5120000   9.8050000 -23.5710000   9.1000000
   8.1650000 -24.0050000   8.5610000   9.3530000 -25.2830000   8.9130000
   9.4580000 -22.8530000   6.4750000   8.4040000 -22.5780000   5.8880000
  10.4530000 -21.9740000   6.6260000  11.2620000 -22.2020000   7.1860000
  10.3560000 -20.6220000   6.0610000   9.4150000 -20.1830000   6.3920000
  11.5100000 -19.7440000   6.5620000  12.4590000 -20.1660000   6.2300000
  11.4010000 -18.7360000   6.1610000  11.4910000 -19.7050000   7.6510000
  10.3130000 -20.6680000   4.5290000   9.5110000 -19.9890000   3.8840000
  11.1810000 -21.4820000   3.9480000  11.8690000 -21.9630000   4.5100000
  11.1810000 -21.7120000   2.5140000  11.3980000 -20.7850000   1.9830000
  12.2580000 -22.7440000   2.1590000  12.1310000 -23.5720000   2.8570000
  12.0340000 -23.0840000   1.1480000  13.6970000 -22.2450000   2.2200000
  13.8170000 -21.4910000   1.4420000  13.9230000 -21.8040000   3.1910000
  14.6790000 -23.3710000   1.9590000  14.8380000 -23.8060000   0.8160000
  15.3100000 -23.8840000   3.0270000  15.9740000 -24.6360000   2.9050000
  15.1180000 -23.5160000   3.9480000   9.8290000 -22.2390000   2.0310000
   9.3020000 -21.7700000   1.0170000   9.2870000 -23.2440000   2.7310000
   9.7500000 -23.6240000   3.5440000   8.0130000 -23.8410000   2.3140000
   8.0550000 -24.1720000   1.2760000   7.6290000 -25.0480000   3.2300000
   7.6670000 -24.7200000   4.2690000   6.2240000 -25.5690000   2.9110000
   6.1850000 -25.8980000   1.8730000   5.9900000 -26.4080000   3.5660000
   5.4960000 -24.7720000   3.0670000   8.6520000 -26.1850000   3.1050000
   8.4310000 -26.7180000   2.1800000   9.6380000 -25.7260000   3.0330000
   8.6330000 -27.1770000   4.2860000   7.6480000 -27.6370000   4.3590000
   9.3840000 -27.9500000   4.1240000   8.8540000 -26.6450000   5.2110000
   6.9150000 -22.7680000   2.3740000   6.0290000 -22.7080000   1.5130000
   6.9610000 -21.9380000   3.4160000   7.6860000 -22.0450000   4.1110000
   5.9750000 -20.8700000   3.5990000   4.9610000 -21.2700000   3.5670000
   6.1820000 -20.1750000   4.9380000   7.1900000 -19.7610000   4.9810000
   5.4550000 -19.3710000   5.0470000   6.0500000 -20.8950000   5.7460000
   6.1100000 -19.8660000   2.4880000   5.1190000 -19.2330000   2.0900000
   7.3420000 -19.6940000   2.0090000   8.1210000 -20.1940000   2.4120000
   7.6100000 -18.7420000   0.9570000   7.1700000 -17.7750000   1.2000000
   9.1220000 -18.5660000   0.8040000   9.5200000 -18.0820000   1.6960000
   9.5880000 -19.5440000   0.6830000   9.3990000 -17.7760000  -0.3180000
  10.3490000 -17.6700000  -0.4080000   6.9450000 -19.2210000  -0.3390000
   6.2510000 -18.4660000  -1.0240000   7.1250000 -20.4920000  -0.6640000
   7.7180000 -21.0970000  -0.1150000   6.4670000 -21.0470000  -1.8270000
   6.7500000 -20.4630000  -2.7030000   6.7940000 -22.0790000  -1.9570000
   4.9490000 -21.0220000  -1.6840000   4.2370000 -20.7590000  -2.6580000
   4.4470000 -21.3050000  -0.4830000   5.0490000 -21.5830000   0.2780000
   3.0020000 -21.2980000  -0.2570000   2.5080000 -21.8150000  -1.0800000
   2.6310000 -21.9950000   1.0500000   3.2740000 -21.5840000   1.8280000
   1.5930000 -21.7420000   1.2670000   2.7870000 -23.5100000   1.0100000
   3.8480000 -23.7330000   0.9010000   2.4290000 -23.9070000   1.9600000
   1.8730000 -24.2890000  -0.3430000   0.1910000 -23.7050000  -0.0480000
   0.1710000 -22.6160000  -0.0920000  -0.4740000 -24.1110000  -0.8100000
  -0.1410000 -24.0350000   0.9360000   2.4490000 -19.8790000  -0.2720000
   1.3090000 -19.6580000  -0.6820000   3.2530000 -18.9220000   0.1810000
   4.1320000 -19.1470000   0.6240000   2.8560000 -17.5180000   0.1030000
   1.9240000 -17.3650000   0.6460000   3.9370000 -16.6040000   0.7120000
   4.8740000 -16.7400000   0.1720000   3.6200000 -15.5640000   0.6340000
   4.0820000 -16.8610000   1.7610000   2.5890000 -17.1580000  -1.3540000
   1.6170000 -16.4650000  -1.6610000   3.4550000 -17.6320000  -2.2450000
   4.3040000 -18.0750000  -1.9250000   3.2470000 -17.4910000  -3.6890000
   3.1450000 -16.4360000  -3.9440000   4.4340000 -18.0710000  -4.4690000
   5.2940000 -17.4270000  -4.2830000   4.6260000 -19.0610000  -4.0540000
   4.2010000 -18.1860000  -5.9690000   4.3470000 -17.0840000  -6.8070000
   4.6380000 -16.1280000  -6.3720000   4.1280000 -17.1870000  -8.1790000
   4.2370000 -16.3120000  -8.8200000   3.7720000 -18.3970000  -8.7230000
   3.5590000 -18.5030000 -10.0800000   3.6870000 -17.6730000 -10.5460000
   3.6270000 -19.5120000  -7.9130000   3.3430000 -20.4720000  -8.3430000
   3.8460000 -19.4010000  -6.5470000   3.7410000 -20.2760000  -5.9050000
   1.9510000 -18.1810000  -4.1230000   1.1410000 -17.6060000  -4.8550000
   1.7620000 -19.4200000  -3.6810000   2.4820000 -19.9060000  -3.1660000
   0.5250000 -20.1280000  -3.9720000   0.3980000 -20.2700000  -5.0450000
   0.4930000 -21.5120000  -3.2830000   0.7680000 -21.3900000  -2.2350000
  -0.8950000 -22.1290000  -3.3740000  -1.1710000 -22.2520000  -4.4210000
  -0.8940000 -23.1020000  -2.8830000  -1.6160000 -21.4760000  -2.8830000
   1.5140000 -22.4290000  -3.9150000   2.5090000 -21.9970000  -3.8050000
   1.4840000 -23.4010000  -3.4230000   1.2870000 -22.5510000  -4.9740000
  -0.6560000 -19.2770000  -3.5150000  -1.6280000 -19.0940000  -4.2480000
  -0.5480000 -18.7550000  -2.2980000   0.2580000 -19.0060000  -1.7440000
  -1.5540000 -17.8850000  -1.7000000  -2.4810000 -18.4310000  -1.5260000
  -1.0250000 -17.3740000  -0.3530000  -0.7750000 -18.2640000   0.2240000
  -0.1130000 -16.8220000  -0.5830000  -1.9640000 -16.4880000   0.4610000
  -2.1020000 -15.5580000  -0.0900000  -2.9240000 -16.9930000   0.5670000
  -1.3960000 -16.1800000   1.8450000  -0.4990000 -15.3130000   1.9480000
  -1.8320000 -16.8140000   2.8400000  -1.9260000 -16.7080000  -2.6120000
  -3.0890000 -16.5210000  -2.9700000  -0.9440000 -15.9090000  -2.9980000
   0.0050000 -16.0310000  -2.6740000  -1.2640000 -14.7100000  -3.7690000
  -2.1770000 -14.2630000  -3.3770000  -0.1380000 -13.6730000  -3.6900000
  -0.4970000 -12.7850000  -4.2110000  -0.0010000 -13.4430000  -2.6330000
   1.1650000 -14.1020000  -4.2780000   1.4090000 -15.1050000  -3.9290000
   1.0910000 -14.1040000  -5.3650000   2.2560000 -13.1370000  -3.8470000
   2.0700000 -12.1640000  -4.3020000   2.2360000 -13.0400000  -2.7620000
   3.5840000 -13.5980000  -4.2520000   3.7820000 -13.6350000  -5.2420000
   4.5350000 -13.9730000  -3.3990000   4.3100000 -13.9350000  -2.0920000
   3.4150000 -13.6210000  -1.7460000   5.0350000 -14.2210000  -1.4490000
   5.7140000 -14.3810000  -3.8490000   5.8900000 -14.4070000  -4.8430000
   6.4300000 -14.6640000  -3.1950000  -1.6840000 -14.9880000  -5.2140000
  -2.1910000 -14.0980000  -5.8860000  -1.4870000 -16.2260000  -5.6720000
  -0.9960000 -16.8910000  -5.0920000  -1.9390000 -16.6600000  -6.9970000
  -1.9330000 -15.8150000  -7.6850000  -1.0130000 -17.7450000  -7.5480000
  -0.9420000 -18.5250000  -6.7900000  -1.4860000 -18.1500000  -8.4430000
   0.3730000 -17.2490000  -7.8910000   0.7590000 -16.6830000  -7.0430000
   1.0140000 -18.1110000  -8.0740000   0.3660000 -16.1910000  -9.3570000
  -0.1130000 -17.4110000 -10.5950000  -1.0870000 -17.8270000 -10.3380000
  -0.1690000 -16.9340000 -11.5730000   0.6270000 -18.2110000 -10.6230000
  -3.3580000 -17.2060000  -6.9370000  -3.9150000 -17.6210000  -7.9530000
  -3.9240000 -17.2310000  -5.7360000  -3.3700000 -17.0120000  -4.9200000
  -5.2920000 -17.6960000  -5.5380000  -5.5600000 -17.6150000  -4.4840000
  -6.2660000 -16.8580000  -6.3530000  -6.0200000 -16.9170000  -7.4130000
  -7.2670000 -17.2570000  -6.1900000  -6.2500000 -15.4090000  -5.9340000
  -6.3510000 -15.0980000  -4.7390000  -6.0920000 -14.5110000  -6.9040000
  -6.0740000 -13.5270000  -6.6790000  -5.9910000 -14.8180000  -7.8610000
  -5.4700000 -19.1780000  -5.8090000  -6.5560000 -19.6350000  -6.1750000
  -4.3970000 -19.9320000  -5.6010000  -3.4890000 -19.5230000  -5.4300000
  -4.4970000 -21.3760000  -5.6750000  -5.4010000 -21.6590000  -6.2140000
  -3.2910000 -21.9490000  -6.4110000  -2.4310000 -21.3210000  -6.1800000
  -3.1320000 -22.9460000  -6.0010000  -3.4590000 -22.0420000  -7.9170000
  -3.5500000 -20.9020000  -8.7010000  -3.5020000 -19.9250000  -8.2190000
  -3.7000000 -20.9900000 -10.0800000  -3.7820000 -20.0880000 -10.6860000
  -3.7460000 -22.2290000 -10.6800000  -3.8900000 -22.3400000 -12.0480000
  -3.9490000 -21.4890000 -12.4890000  -3.6480000 -23.3750000  -9.9220000
  -3.6840000 -24.3540000 -10.3990000  -3.5040000 -23.2790000  -8.5520000
  -3.4230000 -24.1830000  -7.9480000  -4.6140000 -21.9930000  -4.2780000
  -4.3850000 -21.3200000  -3.2500000  -5.0080000 -23.2630000  -4.2480000
  -5.4540000 -23.6690000  -5.0580000  -4.9060000 -24.0670000  -3.0420000
  -4.2360000 -23.6310000  -2.3010000  -6.2920000 -24.3010000  -2.3820000
  -6.6170000 -23.3730000  -1.9110000  -7.3160000 -24.7300000  -3.4100000
  -6.9920000 -25.6580000  -3.8810000  -8.2780000 -24.8870000  -2.9220000
  -7.4170000 -23.9540000  -4.1690000  -6.1910000 -25.3090000  -1.2370000
  -5.5030000 -24.9320000  -0.4800000  -7.1760000 -25.4540000  -0.7920000
  -5.8220000 -26.2600000  -1.6210000  -4.1940000 -25.3650000  -3.4350000
  -4.3730000 -25.8720000  -4.5420000  -3.3400000 -25.8680000  -2.5550000
  -3.2150000 -25.4400000  -1.6490000  -2.5250000 -27.0320000  -2.8890000
  -2.3230000 -27.0510000  -3.9600000  -1.1950000 -26.9730000  -2.1430000
  -0.6760000 -26.0360000  -2.3470000  -1.3840000 -27.0570000  -1.0730000
  -0.2460000 -28.0740000  -2.4980000  -0.4060000 -29.3710000  -2.0550000
   0.5830000 -30.1150000  -2.5170000   0.6370000 -31.1780000  -2.2800000
   1.3800000 -29.3460000  -3.2400000   2.2180000 -29.6430000  -3.7200000
   0.8870000 -28.0670000  -3.2370000   1.4130000 -27.2790000  -3.7750000
  -3.2770000 -28.3020000  -2.5370000  -3.3550000 -29.2360000  -3.3510000
  -3.8010000 -28.3210000  -1.3080000  -3.5020000 -27.5990000  -0.6680000
  -4.6800000 -29.3830000  -0.8000000  -5.1390000 -29.0560000   0.1330000
  -5.7930000 -29.7180000  -1.8040000  -5.3150000 -30.1090000  -2.7020000
  -6.4140000 -30.4940000  -1.3560000  -6.6600000 -28.5240000  -2.1700000
  -7.3370000 -28.3110000  -1.3430000  -6.0180000 -27.6600000  -2.3450000
  -7.4690000 -28.8170000  -3.4250000  -7.8920000 -27.8910000  -3.8140000
  -6.8250000 -29.2670000  -4.1800000  -8.5530000 -29.7360000  -3.1320000
  -8.9150000 -29.7350000  -2.1890000  -9.0940000 -30.5650000  -4.0170000
  -8.6440000 -30.5960000  -5.2630000  -7.8870000 -29.9870000  -5.5390000
  -9.0600000 -31.2290000  -5.9310000 -10.0850000 -31.3650000  -3.6470000
 -10.4220000 -31.3390000  -2.6950000 -10.4980000 -31.9960000  -4.3190000
  -3.9710000 -30.6610000  -0.3740000  -4.6180000 -31.6080000   0.0700000
  -2.6500000 -30.7130000  -0.5100000  -2.1240000 -29.9690000  -0.9470000
  -1.9330000 -31.9200000  -0.0990000  -2.4830000 -32.4210000   0.6980000
  -1.7870000 -32.8870000  -1.2760000  -2.7010000 -32.8370000  -1.8680000
  -0.9440000 -32.5500000  -1.8800000  -1.5490000 -34.3270000  -0.8300000
  -1.7860000 -34.6520000   0.3550000  -1.1250000 -35.1390000  -1.6720000
  -0.5670000 -31.5630000   0.5060000   0.4240000 -32.2750000   0.3100000
  -0.5420000 -30.4640000   1.2590000  -1.3890000 -29.9210000   1.3530000
   0.6690000 -29.9750000   1.9100000   1.5140000 -30.0180000   1.2230000
   0.4580000 -28.5120000   2.3390000   0.1220000 -28.0520000   1.4100000
  -0.3660000 -28.5300000   3.0530000   1.6120000 -27.7050000   2.9170000
   1.9420000 -28.1680000   3.8470000   2.7760000 -27.6660000   1.9260000
   2.4470000 -27.2020000   0.9960000   3.5960000 -27.0860000   2.3500000
   3.1160000 -28.6820000   1.7240000   1.1440000 -26.2690000   3.2710000
   0.3420000 -26.3190000   4.0080000   1.9810000 -25.7050000   3.6830000
   0.7800000 -25.7730000   2.3710000   1.0490000 -30.8490000   3.1180000
   0.2290000 -31.0740000   4.0230000   2.2960000 -31.3240000   3.1160000
   2.8820000 -31.0700000   2.3340000   2.8570000 -32.2070000   4.1500000
   2.8760000 -31.6780000   5.1030000   2.0250000 -33.4820000   4.3150000
   2.5950000 -34.1630000   4.9460000   1.1010000 -33.2050000   4.8220000
   1.6970000 -34.1620000   3.0110000   0.7230000 -33.8150000   2.6650000
   2.4570000 -33.9020000   2.2740000   1.6620000 -35.6750000   3.1930000
   2.3580000 -36.1220000   2.4830000   1.9830000 -35.9060000   4.2090000
   0.3460000 -36.2490000   2.9790000  -0.3270000 -35.6970000   2.4660000
  -0.0210000 -37.4520000   3.4170000   0.8330000 -38.2080000   4.1060000
   1.7640000 -37.8670000   4.2970000   0.5450000 -39.1190000   4.4340000
  -1.2480000 -37.9030000   3.1660000  -1.8960000 -37.3310000   2.6440000
  -1.5250000 -38.8150000   3.4990000   4.2880000 -32.5580000   3.7520000
   4.6920000 -32.3290000   2.6100000   5.0580000 -33.1090000   4.6790000
   4.7030000 -33.2860000   5.6080000   6.4810000 -33.3560000   4.4190000
   6.8920000 -32.3860000   4.1390000   7.1840000 -33.8360000   5.6750000
   6.7900000 -34.8110000   5.9630000   8.2540000 -33.9190000   5.4840000
   7.0140000 -33.1230000   6.4820000   6.7390000 -34.3090000   3.2530000
   7.7390000 -34.1680000   2.5260000   5.8570000 -35.2840000   3.0600000
   5.0910000 -35.4450000   3.6980000   6.0370000 -36.2170000   1.9360000
   7.0300000 -36.6570000   2.0280000   4.9960000 -37.3430000   1.9830000
   3.9970000 -36.9190000   1.8830000   5.1780000 -38.0410000   1.1660000
   5.0730000 -37.8700000   2.9340000   5.9840000 -35.4870000   0.5850000
   6.5440000 -35.9630000  -0.4010000   5.3010000 -34.3410000   0.5390000
   4.7980000 -34.0180000   1.3530000   5.1670000 -33.5770000  -0.7120000
   5.5740000 -34.1630000  -1.5360000   3.6920000 -33.2490000  -1.0220000
   3.2980000 -32.6550000  -0.1970000   3.6370000 -32.6710000  -1.9440000
   2.8280000 -34.5020000  -1.1780000   1.6000000 -34.4560000  -1.0400000
   3.4710000 -35.6250000  -1.4490000   2.9530000 -36.4850000  -1.5630000
   4.4770000 -35.6180000  -1.5410000   6.0010000 -32.2880000  -0.7560000
   5.6530000 -31.3580000  -1.4820000   7.0570000 -32.2330000   0.0590000
   7.1520000 -32.9390000   0.7750000   8.1060000 -31.2240000  -0.0620000
   7.8030000 -30.4590000  -0.7770000   8.4270000 -30.5610000   1.2960000
   8.8220000 -31.3240000   1.9670000   9.4550000 -29.4310000   1.1440000
   9.0600000 -28.6680000   0.4740000   9.6560000 -28.9880000   2.1200000
  10.3800000 -29.8340000   0.7310000   7.1540000 -30.0050000   1.9390000
   6.4580000 -30.8360000   2.0550000   7.4270000 -29.6200000   2.9220000
   6.5140000 -28.9340000   1.1520000   6.2410000 -29.3180000   0.1690000
   5.6180000 -28.5890000   1.6680000   7.2090000 -28.1030000   1.0360000
   9.3500000 -31.9530000  -0.5390000   9.7170000 -32.9990000   0.0280000
  10.0000000 -31.4290000  -1.5760000   9.6080000 -30.6500000  -2.0860000
  11.2400000 -32.0280000  -2.0690000  11.3750000 -33.0110000  -1.6190000
  11.2030000 -32.1870000  -3.5830000  10.9760000 -31.1960000  -3.9770000
  12.1740000 -32.5120000  -3.9570000  10.1330000 -33.1680000  -4.0320000
   9.1600000 -32.7650000  -3.7510000  10.1710000 -33.3970000  -5.5250000
  11.1440000 -33.8000000  -5.8070000   9.3900000 -34.1040000  -5.8050000
  10.0060000 -32.4520000  -6.0420000  10.2950000 -34.4820000  -3.2870000
  10.1970000 -34.3070000  -2.2160000   9.5250000 -35.1820000  -3.6120000
  11.2790000 -34.9010000  -3.4980000  12.4670000 -31.2410000  -1.6310000
  12.4260000 -30.0120000  -1.4800000  13.5680000 -31.9540000  -1.4240000
  13.5880000 -32.9370000  -1.6570000  14.7750000 -31.3510000  -0.8640000
  14.6640000 -30.2830000  -0.6780000  15.1710000 -32.0410000   0.4520000
  15.3880000 -33.0890000   0.2460000  16.4220000 -31.3670000   1.0790000
  16.2060000 -30.3190000   1.2850000  16.6810000 -31.8740000   2.0090000
  17.2590000 -31.4350000   0.3840000  13.9980000 -32.0400000   1.4210000
  13.1590000 -32.5750000   0.9770000  14.2920000 -32.5310000   2.3490000
  13.7020000 -31.0130000   1.6330000  15.9480000 -31.4770000  -1.8250000
  16.1140000 -32.5120000  -2.4780000  16.7590000 -30.4280000  -1.9030000
  16.5340000 -29.5790000  -1.4040000  17.9800000 -30.4600000  -2.6960000
  18.0820000 -31.4330000  -3.1760000  17.9450000 -29.6820000  -3.4580000
  19.1820000 -30.2220000  -1.8030000  19.0560000 -30.2470000  -0.5770000
  20.3470000 -29.9790000  -2.4020000  20.4350000 -30.0480000  -3.4060000
  21.5380000 -29.6470000  -1.6230000  21.6950000 -30.4020000  -0.8530000
  22.7790000 -29.5980000  -2.5210000  22.7590000 -28.6380000  -3.0360000
  23.6470000 -29.6380000  -1.8630000  22.8670000 -30.7270000  -3.5510000
  21.9040000 -30.7710000  -4.0600000  23.6460000 -30.4720000  -4.2690000
  23.1740000 -32.0820000  -2.9300000  23.8080000 -32.1340000  -1.8520000
  22.7890000 -33.1040000  -3.5330000  21.3530000 -28.3010000  -0.9180000
  20.4210000 -27.5560000  -1.2250000  22.2320000 -28.0070000   0.0380000
  22.8970000 -28.7090000   0.3310000  22.2040000 -26.7340000   0.7590000
  22.9380000 -26.7460000   1.5650000  22.5410000 -25.5790000  -0.1940000
  23.4580000 -25.8200000  -0.7320000  21.7210000 -25.4750000  -0.9040000
  22.7330000 -24.2520000   0.5240000  22.2300000 -23.2170000   0.0820000
  23.4520000 -24.2770000   1.6400000  23.6090000 -23.4230000   2.1550000
  23.8380000 -25.1500000   1.9690000  20.8630000 -26.5190000   1.4670000
  20.4820000 -25.3880000   1.7780000  20.1590000 -27.6270000   1.7090000
  20.4840000 -28.4910000   1.3000000  18.8880000 -27.6390000   2.4390000
  18.4730000 -28.6470000   2.4280000  19.0790000 -27.2050000   3.8950000
  19.6100000 -26.2550000   3.8390000  18.1080000 -27.0500000   4.3660000
  19.8950000 -28.1970000   4.7240000  20.9460000 -28.1250000   4.4430000
  19.7430000 -27.8760000   6.2010000  18.6930000 -27.9480000   6.4830000
  20.3260000 -28.5850000   6.7890000  20.1010000 -26.8650000   6.3920000
  19.4620000 -29.6270000   4.4180000  19.6180000 -29.8360000   3.3600000
  20.0520000 -30.3220000   5.0160000  18.4060000 -29.7470000   4.6590000
  17.7950000 -26.8050000   1.7770000  16.9520000 -26.2110000   2.4590000
  17.7960000 -26.7830000   0.4510000  18.5480000 -27.2070000  -0.0730000
  16.7410000 -26.1110000  -0.2820000  16.4660000 -25.1600000   0.1730000
  17.1660000 -25.8570000  -1.7220000  17.5740000 -26.7770000  -2.1400000
  15.9740000 -25.4060000  -2.5550000  15.5660000 -24.4850000  -2.1380000
  16.2940000 -25.2280000  -3.5820000  15.2070000 -26.1810000  -2.5430000
  18.3040000 -24.8080000  -1.7560000  19.1580000 -25.1790000  -1.1890000
  18.6040000 -24.6300000  -2.7890000  17.9530000 -23.8750000  -1.3150000
  15.4560000 -26.9430000  -0.2550000  15.4560000 -28.1230000  -0.5950000
  14.3570000 -26.3260000   0.1520000  14.3920000 -25.3720000   0.4830000
  13.0740000 -27.0270000   0.1920000  13.2090000 -28.0740000  -0.0810000
  12.4920000 -26.9620000   1.6040000  12.5420000 -25.9510000   2.0090000
  11.4600000 -27.3110000   1.6260000  13.4030000 -28.0150000   2.7660000
  12.6600000 -27.7230000   3.8300000  12.1020000 -26.4480000  -0.8110000
  11.9630000 -25.2170000  -0.9090000  11.4250000 -27.3270000  -1.5520000
  11.5990000 -28.3170000  -1.4520000  10.4510000 -26.8920000  -2.5520000
  10.2280000 -25.8340000  -2.4150000  11.0080000 -27.0970000  -3.9700000
  11.8130000 -27.8250000  -3.8750000  10.1950000 -27.5300000  -4.5530000
  11.5350000 -25.8420000  -4.6800000  11.2690000 -25.9170000  -5.7340000
  11.0390000 -24.9760000  -4.2420000  13.0420000 -25.6830000  -4.5480000
  13.2480000 -24.6660000  -4.2130000  13.3940000 -26.3910000  -3.7970000
  13.7670000 -25.9410000  -5.8710000  14.7170000 -26.4110000  -5.6160000
  13.1510000 -26.6460000  -6.4290000  14.0190000 -24.7330000  -6.7070000
  14.5900000 -24.0790000  -6.1910000  14.4990000 -25.0040000  -7.5540000
  13.1390000 -24.2980000  -6.9430000   9.1200000 -27.6400000  -2.4220000
   9.0900000 -28.8650000  -2.2280000   8.0190000 -26.9070000  -2.5480000
   8.0810000 -25.9010000  -2.6130000   6.7020000 -27.5190000  -2.5800000
   6.5630000 -28.2150000  -1.7520000   5.6010000 -26.4590000  -2.5180000
   5.6580000 -25.8320000  -3.4080000   4.2360000 -27.1240000  -2.4530000
   4.1780000 -27.7500000  -1.5630000   3.4600000 -26.3590000  -2.4090000
   4.0890000 -27.7400000  -3.3400000   5.8160000 -25.5350000  -1.3050000
   6.7830000 -25.0390000  -1.3920000   5.0250000 -24.7860000  -1.2740000
   5.7930000 -26.1260000  -0.3890000   6.5700000 -28.3250000  -3.8730000
   6.9930000 -27.8660000  -4.9480000   6.0080000 -29.5300000  -3.7760000
   5.6960000 -29.8810000  -2.8820000   5.8840000 -30.4000000  -4.9430000
   5.9870000 -29.7960000  -5.8450000   6.9870000 -31.4610000  -4.9360000
   6.8910000 -32.0790000  -4.0430000   6.8950000 -32.0880000  -5.8230000
   7.9620000 -30.9730000  -4.9360000   4.5120000 -31.0590000  -4.9910000
   3.6590000 -30.7870000  -4.1440000   4.3110000 -31.9230000  -5.9870000
   4.9820000 -31.9640000  -6.7410000   3.1220000 -32.7760000  -6.0680000
   3.1490000 -33.3660000  -6.9840000   3.0750000 -33.7290000  -4.8740000
   4.1050000 -33.9190000  -4.5710000   2.5420000 -33.2380000  -4.0590000
   2.3970000 -35.0390000  -5.2020000   1.1560000 -35.0360000  -5.3950000
   3.1070000 -36.0710000  -5.2500000   1.8190000 -31.9990000  -6.1390000
   1.0040000 -32.0580000  -5.2190000   1.6140000 -31.2900000  -7.2430000
   2.3120000 -31.2770000  -7.9730000   0.4400000 -30.4450000  -7.3960000
   0.0960000 -30.1050000  -6.4190000   0.7820000 -29.2170000  -8.2500000
   1.1560000 -29.5520000  -9.2180000  -0.0840000 -28.5720000  -8.3990000
   1.8520000 -28.3640000  -7.6510000   3.1890000 -28.7170000  -7.7880000
   3.4490000 -29.6130000  -8.3520000   4.1860000 -27.9440000  -7.2170000
   5.2330000 -28.2220000  -7.3370000   3.8490000 -26.8140000  -6.4910000
   4.6300000 -26.2050000  -6.0360000   2.5170000 -26.4570000  -6.3430000
   2.2510000 -25.5670000  -5.7730000   1.5270000 -27.2310000  -6.9190000
   0.4800000 -26.9530000  -6.8000000  -0.7640000 -31.1910000  -7.9800000
  -1.7110000 -30.5590000  -8.4590000  -0.7200000 -32.5240000  -7.9210000
   0.1110000 -32.9690000  -7.5580000  -1.8210000 -33.3710000  -8.3590000
  -1.7320000 -33.4660000  -9.4410000  -1.6700000 -34.3460000  -7.8960000
  -3.2190000 -32.8710000  -8.0180000  -4.0860000 -32.8130000  -8.8960000
  -3.4420000 -32.5060000  -6.7550000  -2.7060000 -32.6030000  -6.0700000
  -4.7530000 -32.0340000  -6.3040000  -5.5240000 -32.3550000  -7.0050000
  -5.0790000 -32.6070000  -4.9210000  -4.2680000 -32.2100000  -4.3100000
  -6.0270000 -32.1880000  -4.5830000  -5.1190000 -34.1350000  -4.7870000
  -4.2230000 -34.5430000  -5.2550000  -5.1770000 -34.5800000  -3.3170000
  -6.0730000 -34.1730000  -2.8490000  -5.2040000 -35.6690000  -3.2670000
  -4.2950000 -34.2150000  -2.7910000  -6.2870000 -34.7280000  -5.5780000
  -6.1790000 -34.4740000  -6.6320000  -6.2900000 -35.8120000  -5.4640000
  -7.2250000 -34.3210000  -5.2010000  -4.8750000 -30.5020000  -6.2690000
  -5.9310000 -29.9630000  -5.9190000  -3.7980000 -29.8000000  -6.6180000
  -2.9360000 -30.2660000  -6.8610000  -3.8080000 -28.3380000  -6.5770000
  -4.1170000 -28.0340000  -5.5770000  -2.4110000 -27.7700000  -6.8520000
  -2.0920000 -28.0580000  -7.8530000  -2.4390000 -26.6830000  -6.7790000
  -1.7070000 -28.1640000  -6.1190000  -4.8300000 -27.7670000  -7.5590000
  -5.0720000 -28.3470000  -8.6240000  -5.4200000 -26.6300000  -7.2000000
  -5.1390000 -26.1460000  -6.3590000  -6.5210000 -26.0840000  -7.9730000
  -6.3230000 -26.2070000  -9.0380000  -7.8310000 -26.8160000  -7.6280000
  -8.4620000 -26.7900000  -8.5160000  -7.5750000 -27.8490000  -7.3950000
  -8.5820000 -26.2020000  -6.4540000  -7.8600000 -26.0360000  -5.6540000
  -8.9830000 -25.2440000  -6.7860000  -9.7220000 -27.0790000  -5.9370000
 -10.4160000 -27.2930000  -6.7500000  -9.3170000 -28.0140000  -5.5490000
 -10.4540000 -26.4010000  -4.8600000 -10.1700000 -25.4570000  -4.6420000
 -11.4540000 -26.9410000  -4.1630000 -11.8580000 -28.1820000  -4.4190000
 -11.4050000 -28.7180000  -5.1450000 -12.6160000 -28.5830000  -3.8860000
 -12.0550000 -26.2420000  -3.2040000 -11.7520000 -25.3000000  -3.0050000
 -12.8120000 -26.6570000  -2.6800000  -6.6910000 -24.5780000  -7.7440000
  -6.4950000 -24.0660000  -6.6330000  -7.0530000 -23.8730000  -8.8110000
  -6.9870000 -24.2770000  -9.7340000  -7.5410000 -22.5090000  -8.6890000
  -6.7760000 -21.8710000  -8.2470000  -7.8860000 -21.9680000 -10.0740000
  -7.0350000 -22.3130000 -10.6610000  -8.7810000 -22.5090000 -10.3800000
  -8.0910000 -20.4740000 -10.3060000  -8.9890000 -20.1700000  -9.7680000
  -6.9010000 -19.6400000  -9.8250000  -6.0030000 -19.9440000 -10.3630000
  -7.0970000 -18.5840000 -10.0130000  -6.7550000 -19.7970000  -8.7560000
  -8.3400000 -20.2440000 -11.7880000  -9.2290000 -20.7930000 -12.0970000
  -8.4890000 -19.1800000 -11.9710000  -7.4810000 -20.5940000 -12.3600000
  -8.7820000 -22.5270000  -7.7940000  -9.6760000 -23.3590000  -7.9760000
  -8.8190000 -21.6420000  -6.8010000  -8.0260000 -21.0440000  -6.6170000
  -9.9910000 -21.5230000  -5.9370000 -10.2680000 -22.5140000  -5.5780000
  -9.7340000 -20.5900000  -4.7280000  -9.0950000 -19.7670000  -5.0460000
 -11.0420000 -20.0370000  -4.1940000 -11.6820000 -20.8600000  -3.8750000
 -10.8410000 -19.3840000  -3.3450000 -11.5440000 -19.4700000  -4.9780000
  -9.0150000 -21.3330000  -3.6010000  -9.6760000 -22.1290000  -3.2590000
  -8.1090000 -21.7690000  -4.0220000  -8.6460000 -20.4330000  -2.4180000
  -9.5520000 -19.9970000  -1.9960000  -8.1390000 -21.0240000  -1.6550000
  -7.9840000 -19.6370000  -2.7590000 -11.1780000 -20.9740000  -6.7300000
 -11.1270000 -19.8520000  -7.2510000 -12.2050000 -21.8410000  -6.8470000
 -12.0080000 -22.7400000  -6.4310000 -13.4810000 -21.6440000  -7.4620000
 -14.0920000 -21.0450000  -6.7870000 -13.4150000 -20.9310000  -8.8310000
 -12.9600000 -19.9560000  -8.6570000 -12.7610000 -21.5280000  -9.4670000
 -14.7650000 -20.7470000  -9.5200000 -14.7360000 -19.8870000 -10.1880000
 -15.0000000 -21.6440000 -10.0930000 -15.8330000 -20.5290000  -8.4610000
 -15.9040000 -19.4070000  -7.8910000 -16.6070000 -21.4960000  -8.2210000
 -14.0220000 -23.0280000  -7.6300000 -13.7640000 -23.7030000  -8.6300000
 -14.8170000 -23.5200000  -6.6580000 -15.1340000 -23.0300000  -5.8340000
 -15.1600000 -24.9060000  -6.7990000 -14.3680000 -25.3850000  -7.3740000
 -15.3340000 -25.6690000  -5.4660000 -14.6340000 -25.2820000  -4.7260000
 -16.3540000 -25.5390000  -5.1040000 -15.0600000 -27.1590000  -5.6980000
 -15.3210000 -27.6590000  -6.8310000 -14.5790000 -27.8220000  -4.7390000
 -16.3990000 -25.0230000  -7.6100000 -17.4480000 -24.4690000  -7.2920000
 -16.2340000 -25.7560000  -8.7270000 -15.3090000 -26.1360000  -8.8670000
 -17.2620000 -26.1110000  -9.6590000 -18.2280000 -25.8550000  -9.2250000
 -17.1230000 -25.3900000 -11.0020000 -16.2630000 -25.6570000 -11.6160000
 -18.0380000 -25.5350000 -11.5770000 -17.0140000 -23.9280000 -10.6260000
 -17.9900000 -23.2580000 -10.2960000 -15.7460000 -23.4490000 -10.5890000
 -15.5810000 -22.4820000 -10.3470000 -14.9720000 -24.0610000 -10.8040000
 -16.9790000 -27.5580000  -9.8880000 -16.0710000 -28.0890000  -9.2470000
 -17.7220000 -28.2750000 -10.7610000 -18.5260000 -27.9560000 -11.2830000
 -17.3490000 -29.6600000 -10.8630000 -17.0580000 -29.9930000  -9.8670000
 -18.4470000 -30.5990000 -11.3940000 -18.8400000 -30.1580000 -12.3100000
 -17.9760000 -31.5550000 -11.6240000 -19.5960000 -30.8210000 -10.4000000
 -20.0570000 -29.8710000 -10.1290000 -20.3390000 -31.4630000 -10.8730000
 -19.0590000 -31.5050000  -9.1400000 -18.1060000 -32.3220000  -9.2530000
 -19.5790000 -31.1990000  -8.0350000 -16.1280000 -29.7740000 -11.7200000
 -16.0900000 -29.3290000 -12.8640000 -15.0720000 -30.3740000 -11.1450000
 -15.1160000 -30.6320000 -10.1700000 -13.8220000 -30.5090000 -11.8270000
 -13.9790000 -30.2740000 -12.8800000 -12.7020000 -29.5700000 -11.2660000
 -11.8250000 -29.7430000 -11.8900000 -13.0470000 -28.5450000 -11.4010000
 -12.3430000 -29.7910000  -9.8260000 -13.1750000 -29.3790000  -8.8110000
 -14.1060000 -28.8730000  -9.0640000 -12.8490000 -29.5960000  -7.5020000
 -13.5110000 -29.2760000  -6.6970000 -11.6760000 -30.2200000  -7.2100000
 -11.3750000 -30.4390000  -5.8680000 -12.0540000 -30.1130000  -5.2730000
 -10.8140000 -30.6250000  -8.1950000  -9.8720000 -31.1150000  -7.9490000
 -11.1510000 -30.4060000  -9.5070000 -10.4750000 -30.7190000 -10.3030000
 -13.5010000 -31.9770000 -11.8200000 -14.2480000 -32.7540000 -11.2280000
 -12.4220000 -32.3980000 -12.5280000 -11.8540000 -31.6830000 -12.9600000
 -12.0580000 -33.7880000 -12.7400000 -12.8560000 -34.3040000 -13.2740000
 -10.7920000 -33.9000000 -13.5440000 -10.5120000 -34.9490000 -13.6360000
 -11.0170000 -33.3050000 -14.9440000 -11.2970000 -32.2550000 -14.8530000
 -10.0990000 -33.3870000 -15.5260000 -11.8150000 -33.8510000 -15.4470000
  -9.7500000 -33.2000000 -12.8850000  -8.9420000 -33.2720000 -13.3980000
 -11.8590000 -34.6030000 -11.4790000 -12.6010000 -35.5580000 -11.2640000
 -10.8900000 -34.2510000 -10.5970000 -10.3390000 -33.4240000 -10.7760000
 -10.6520000 -34.9800000  -9.3720000 -10.7640000 -36.0570000  -9.4950000
  -9.2640000 -34.6950000  -8.7680000  -9.1410000 -33.6210000  -8.6300000
  -9.1760000 -35.1970000  -7.8040000  -8.4910000 -35.0650000  -9.4420000
 -11.6660000 -34.4950000  -8.3850000 -12.0110000 -33.3190000  -8.3800000
 -12.2230000 -35.3470000  -7.5180000 -12.1100000 -36.3460000  -7.4180000
 -13.1530000 -34.6790000  -6.6570000 -13.0160000 -33.6110000  -6.8240000
 -14.6490000 -35.0190000  -6.8400000 -14.6910000 -36.0950000  -7.0060000
 -15.1270000 -34.7800000  -5.8900000 -15.3830000 -34.2970000  -7.9770000
 -15.0950000 -34.8080000  -8.8960000 -16.4470000 -34.4490000  -7.7950000
 -15.0980000 -32.7960000  -8.1160000 -14.0750000 -32.6440000  -8.4600000
 -15.7910000 -32.3530000  -8.8310000 -15.2670000 -32.1110000  -6.7980000
 -14.9540000 -32.5170000  -5.9280000 -15.8690000 -30.8910000  -6.7660000
 -16.5220000 -30.4580000  -7.8850000 -16.5480000 -31.0420000  -8.7090000
 -16.9760000 -29.5560000  -7.8840000 -15.8180000 -30.1170000  -5.6390000
 -15.3290000 -30.4530000  -4.8210000 -16.2690000 -29.2140000  -5.6300000
 -12.8150000 -34.9580000  -5.2450000 -11.9030000 -35.7300000  -4.9510000
 -13.5460000 -34.2620000  -4.3480000 -14.2350000 -33.6230000  -4.7170000
 -13.4310000 -34.3890000  -2.9300000 -12.4050000 -34.6820000  -2.7060000
 -13.7600000 -33.1090000  -2.1400000 -14.7630000 -32.8020000  -2.4350000
 -13.7590000 -33.3770000  -1.0840000 -12.7860000 -31.9570000  -2.3730000
 -12.5130000 -31.5880000  -1.3840000 -11.8900000 -32.2880000  -2.8970000
 -13.4160000 -30.8180000  -3.1590000 -13.4480000 -30.8320000  -4.3890000
 -13.8700000 -29.7600000  -2.4300000 -14.2980000 -28.9740000  -2.8990000
 -13.7760000 -29.7660000  -1.4240000 -14.4130000 -35.4310000  -2.5080000
 -15.4980000 -35.5420000  -3.0790000 -14.0230000 -36.2250000  -1.4940000
 -13.1240000 -36.0420000  -1.0710000 -14.8070000 -37.3120000  -0.9820000
 -15.7690000 -36.9670000  -0.6030000 -14.9690000 -38.0800000  -1.7390000
 -14.0200000 -37.9010000   0.1500000 -13.2690000 -37.2020000   0.8250000
 -14.1520000 -39.2220000   0.3720000 -14.7400000 -39.7510000  -0.2570000
 -13.5170000 -39.9180000   1.4610000 -13.8540000 -39.4610000   2.3920000
 -13.8760000 -41.4130000   1.4890000 -13.5370000 -41.8860000   0.5670000
 -13.3890000 -41.8880000   2.3410000 -14.9560000 -41.5260000   1.5790000
 -12.0120000 -39.8160000   1.3850000 -11.3490000 -39.7440000   2.4200000
 -11.4420000 -39.8060000   0.1590000 -12.0470000 -39.7560000  -0.6480000
 -10.0100000 -39.8530000  -0.0570000  -9.5880000 -40.6310000   0.5790000
  -9.6340000 -40.1560000  -1.5240000  -8.5550000 -40.0400000  -1.6250000
  -9.9090000 -41.1890000  -1.7350000 -10.3440000 -39.2240000  -2.5190000
 -11.3160000 -39.6760000  -2.7170000 -10.4840000 -38.2760000  -1.9990000
  -9.6180000 -38.9760000  -3.8440000  -8.8720000 -39.7580000  -3.9840000
 -10.3460000 -39.0210000  -4.6540000  -8.9320000 -37.6100000  -3.8510000
  -8.0280000 -37.6480000  -3.2440000  -8.6720000 -37.3330000  -4.8720000
  -9.8600000 -36.6070000  -3.2900000 -10.1010000 -36.8640000  -2.3430000
  -9.4160000 -35.7000000  -3.2900000 -10.6980000 -36.5720000  -3.8530000
  -9.2750000 -38.5710000   0.2610000  -8.7170000 -37.9470000  -0.6400000
  -9.2160000 -38.1800000   1.5560000  -9.8360000 -38.6730000   2.1820000
  -8.4190000 -37.0770000   2.0950000  -7.4990000 -36.9740000   1.5190000
  -9.1980000 -35.7520000   2.0190000 -10.2710000 -35.9380000   1.9790000
  -8.9680000 -35.1420000   2.8930000  -8.8580000 -34.9160000   0.8070000
  -7.6480000 -34.2350000   0.7450000  -6.9580000 -34.3100000   1.5850000
  -7.3100000 -33.4630000  -0.3720000  -6.3570000 -32.9350000  -0.4030000
  -8.1880000 -33.3700000  -1.4390000  -7.9320000 -32.7720000  -2.3130000
  -9.4080000 -34.0490000  -1.3900000 -10.1060000 -33.9760000  -2.2240000
  -9.7340000 -34.8210000  -0.2720000 -10.6820000 -35.3570000  -0.2380000
  -7.9620000 -37.3710000   3.5250000  -8.7960000 -37.5100000   4.4290000
  -6.6310000 -37.4560000   3.7320000  -5.6000000 -36.9880000   2.7860000
  -5.8840000 -36.0120000   2.3920000  -5.5110000 -37.6990000   1.9650000
  -4.3440000 -36.9290000   3.6410000  -4.2440000 -35.9440000   4.0960000
  -3.4640000 -37.1380000   3.0320000  -4.5420000 -37.9890000   4.6730000
  -3.9570000 -37.7210000   5.5530000  -4.2810000 -38.9990000   4.3580000
  -6.0370000 -37.9120000   4.9980000  -6.4870000 -38.8680000   5.2650000
  -6.2710000 -36.9130000   6.1170000  -5.6680000 -35.8290000   6.1220000
  -7.1280000 -37.2930000   7.0590000  -7.4980000 -38.2330000   7.0390000
  -7.6060000 -36.3850000   8.0930000  -8.0540000 -35.5120000   7.6200000
  -8.6600000 -37.0810000   9.0000000  -9.4930000 -37.4200000   8.3840000
  -8.0320000 -38.2830000   9.7160000  -7.1990000 -37.9450000  10.3320000
  -8.7800000 -38.7620000  10.3480000  -7.6700000 -38.9980000   8.9770000
  -9.2200000 -36.1330000  10.0680000 -10.0600000 -36.6460000  10.5360000
  -8.4300000 -35.9850000  10.8040000  -9.6840000 -34.7750000   9.5380000
 -10.4750000 -34.9220000   8.8020000 -10.0640000 -34.1730000  10.3630000
  -8.8440000 -34.2610000   9.0700000  -6.4750000 -35.8390000   8.9610000
  -6.6300000 -34.7980000   9.6030000  -5.3520000 -36.5510000   9.0150000
  -5.2760000 -37.4450000   8.5520000  -4.2530000 -36.1230000   9.8810000
  -4.6450000 -35.8810000  10.8690000  -3.1940000 -37.2270000  10.0300000
  -2.9640000 -37.5980000   9.0310000  -2.3030000 -36.7710000  10.4610000
  -3.6560000 -38.4070000  10.9260000  -3.8000000 -38.0190000  11.9340000
  -4.6090000 -38.7650000  10.5350000  -2.6560000 -39.5610000  10.9630000
  -2.5520000 -39.9570000   9.9530000  -1.6960000 -39.1710000  11.3010000
  -3.1190000 -40.6970000  11.9190000  -4.1190000 -40.4350000  12.2630000
  -3.1670000 -41.6110000  11.3270000  -2.2160000 -40.9170000  13.1140000
  -2.1720000 -40.0700000  13.6630000  -2.5850000 -41.6670000  13.6810000
  -1.2890000 -41.1600000  12.7950000  -3.6660000 -34.7880000   9.4090000
  -3.2810000 -33.9560000  10.2220000  -3.6270000 -34.5700000   8.0990000
  -3.9660000 -35.2720000   7.4570000  -3.0300000 -33.3480000   7.5440000
  -2.4550000 -32.8280000   8.3100000  -2.0890000 -33.7140000   6.3880000
  -2.5360000 -34.4960000   5.7740000  -1.9130000 -32.8290000   5.7760000
  -0.7080000 -34.2310000   6.8210000   0.4460000 -33.4900000   6.9570000
   0.3770000 -32.4250000   6.7380000   1.4850000 -34.3020000   7.3610000
   2.4360000 -34.0020000   7.5210000   1.0170000 -35.5890000   7.5060000
   1.6910000 -36.7540000   7.8940000   2.7530000 -36.6900000   8.1300000
   0.9590000 -37.9170000   7.9520000   1.4480000 -38.8440000   8.2530000
  -0.4000000 -37.9410000   7.6340000  -0.9680000 -38.8700000   7.6800000
  -1.0690000 -36.7870000   7.2510000  -2.1310000 -36.8610000   7.0170000
  -0.3520000 -35.5800000   7.1790000  -4.0730000 -32.3150000   7.0650000
  -3.7430000 -31.1620000   6.7350000  -5.3350000 -32.7320000   7.0150000
  -5.5830000 -33.6360000   7.3920000  -6.3790000 -31.9390000   6.3780000
  -5.9520000 -31.1860000   5.7150000  -7.2850000 -32.8520000   5.5590000
  -7.8140000 -33.5160000   6.2430000  -8.3050000 -32.0460000   4.7340000
  -7.7760000 -31.3820000   4.0500000  -8.9330000 -32.7300000   4.1630000
  -8.9290000 -31.4540000   5.4040000  -6.4640000 -33.6370000   4.6850000
  -7.0190000 -34.2190000   4.1610000  -7.1870000 -31.1690000   7.4200000
  -7.5460000 -31.7340000   8.4650000  -7.4470000 -29.8820000   7.1710000
  -7.0220000 -29.3910000   6.3970000  -8.3130000 -29.1250000   8.0840000
  -7.9130000 -29.2200000   9.0940000  -8.3590000 -27.6460000   7.7160000
  -8.7660000 -27.5340000   6.7110000  -8.9930000 -27.1140000   8.4250000
  -7.3510000 -27.2320000   7.7480000  -9.7280000 -29.7300000   8.0950000
 -10.2070000 -30.2160000   7.0720000 -10.3960000 -29.6950000   9.2580000
  -9.8640000 -29.1350000  10.5160000  -9.7800000 -28.0520000  10.4220000
  -8.8800000 -29.5600000  10.7120000 -10.8880000 -29.5500000  11.5500000
 -11.0000000 -28.7500000  12.2820000 -10.5420000 -30.4540000  12.0510000
 -12.1500000 -29.7990000  10.8260000 -12.6990000 -28.8620000  10.7330000
 -12.7820000 -30.5430000  11.3110000 -11.7280000 -30.2960000   9.4380000
 -11.6120000 -31.3780000   9.3690000 -12.7500000 -29.8270000   8.4030000
 -13.4150000 -30.6590000   7.7720000 -12.8980000 -28.5170000   8.2440000
 -12.3510000 -27.8520000   8.7710000 -13.9330000 -28.0060000   7.3450000
 -14.9040000 -28.3850000   7.6640000 -13.9800000 -26.4710000   7.3470000
 -14.9520000 -26.1940000   6.9380000 -13.9250000 -26.1640000   8.3920000
 -12.8630000 -25.7660000   6.5440000 -12.6690000 -26.3710000   5.6580000
 -13.2360000 -24.7880000   6.2410000 -11.5610000 -25.5930000   7.3410000
 -11.4650000 -26.1060000   8.4740000 -10.6260000 -24.9320000   6.8330000
 -13.7190000 -28.5360000   5.9360000 -14.6400000 -28.5740000   5.1310000
 -12.4930000 -28.9490000   5.6390000 -11.7650000 -28.9210000   6.3390000
 -12.1460000 -29.4070000   4.2980000 -12.7760000 -28.9120000   3.5590000
 -10.6880000 -29.0860000   3.9880000 -10.0440000 -29.5820000   4.7140000
 -10.4430000 -29.4380000   2.9860000 -10.5330000 -28.0080000   4.0420000
 -12.3980000 -30.8940000   4.1830000 -12.9940000 -31.3580000   3.2090000
 -11.9540000 -31.6400000   5.1900000 -11.3970000 -31.2210000   5.9210000
 -12.1720000 -33.0820000   5.2270000 -11.8230000 -33.4850000   4.2760000
 -11.3630000 -33.7100000   6.3460000 -11.7070000 -33.3230000   7.3050000
 -11.4910000 -34.7920000   6.3240000 -10.3090000 -33.4660000   6.2140000
 -13.6620000 -33.4500000   5.3600000 -14.1400000 -34.3800000   4.7120000
 -14.3960000 -32.7230000   6.1910000 -13.9760000 -31.9800000   6.7300000
 -15.8180000 -33.0190000   6.4040000 -15.9840000 -34.0960000   6.3760000
 -16.2620000 -32.4910000   7.7680000 -15.9900000 -31.4380000   7.7020000
 -17.3470000 -32.5830000   7.8070000 -15.6550000 -33.0940000   9.0310000
 -14.5930000 -33.2760000   8.8640000 -15.8270000 -32.1480000  10.1990000
 -16.8890000 -31.9660000  10.3660000 -15.3890000 -32.5910000  11.0940000
 -15.3270000 -31.2040000   9.9800000 -16.2580000 -34.4540000   9.3500000
 -16.0740000 -35.1370000   8.5210000 -15.8010000 -34.8510000  10.2560000
 -17.3320000 -34.3490000   9.5020000 -16.7520000 -32.4550000   5.3140000
 -17.6450000 -33.1600000   4.8140000 -16.5360000 -31.1900000   4.9500000
 -15.6970000 -30.7230000   5.2640000 -17.4810000 -30.4370000   4.1180000
 -18.3690000 -31.0340000   3.9100000 -17.9050000 -29.1780000   4.8670000
 -17.0460000 -28.5080000   4.8950000 -18.7010000 -28.7220000   4.2780000
 -18.3970000 -29.4240000   6.2720000 -19.2890000 -30.4450000   6.5420000
 -19.6370000 -31.0680000   5.7180000 -19.7380000 -30.6830000   7.8230000
 -20.4420000 -31.4920000   8.0150000 -19.2980000 -29.8950000   8.8580000
 -19.7580000 -30.1410000  10.1350000 -20.3730000 -30.8770000  10.1770000
 -18.4010000 -28.8690000   8.6210000 -18.0440000 -28.2420000   9.4390000
 -17.9570000 -28.6420000   7.3320000 -17.2490000 -27.8370000   7.1330000
 -16.9030000 -30.0200000   2.7660000 -17.5280000 -29.2590000   2.0200000
 -15.7000000 -30.5030000   2.4610000 -15.2220000 -31.1060000   3.1150000
 -15.0420000 -30.1900000   1.2050000 -14.1500000 -30.8130000   1.1470000
 -15.7300000 -30.4670000   0.4060000 -14.6400000 -28.7320000   1.0300000
 -14.4510000 -28.2780000  -0.1100000 -14.5050000 -27.9890000   2.1320000
 -14.7250000 -28.3570000   3.0460000 -14.1350000 -26.5800000   2.0240000
 -14.4660000 -26.1820000   1.0650000 -14.7910000 -25.7740000   3.1380000
 -14.2900000 -26.0180000   4.0750000 -14.6540000 -24.7150000   2.9180000
 -16.2680000 -26.0750000   3.2630000 -16.7330000 -25.8690000   2.2990000
 -16.3740000 -27.1340000   3.4970000 -16.9470000 -25.2500000   4.3380000
 -16.8590000 -25.7450000   5.3050000 -16.4950000 -24.2600000   4.3950000
 -18.3630000 -25.1000000   4.0170000 -18.6440000 -25.3270000   3.0740000
 -19.2920000 -24.6890000   4.8730000 -18.9680000 -24.3820000   6.1220000
 -18.0080000 -24.4610000   6.4250000 -19.6830000 -24.0710000   6.7640000
 -20.5510000 -24.5880000   4.4710000 -20.7950000 -24.8240000   3.5200000
 -21.2610000 -24.2760000   5.1180000 -12.6130000 -26.3530000   2.0070000
 -12.0010000 -26.0020000   3.0340000 -12.0210000 -26.5290000   0.8300000
 -12.5710000 -26.8390000   0.0420000 -10.5870000 -26.3140000   0.6340000
 -10.0530000 -26.5130000   1.5630000 -10.0490000 -27.2520000  -0.4500000
 -10.6740000 -27.1800000  -1.3400000  -9.0230000 -26.9880000  -0.7050000
 -10.0340000 -28.7070000  -0.0500000  -8.9330000 -29.2530000   0.5950000
  -8.0780000 -28.6140000   0.8150000  -8.9100000 -30.5940000   0.9600000
  -8.0350000 -31.0060000   1.4630000  -9.9950000 -31.4040000   0.6860000
  -9.9850000 -32.4550000   0.9750000 -11.0970000 -30.8750000   0.0410000
 -11.9530000 -31.5130000  -0.1800000 -11.1160000 -29.5330000  -0.3260000
 -11.9860000 -29.1200000  -0.8360000 -10.2990000 -24.8750000   0.2340000
 -10.8060000 -24.3820000  -0.7760000  -9.4690000 -24.2050000   1.0260000
  -9.1000000 -24.6450000   1.8570000  -9.0800000 -22.8360000   0.7410000
  -9.2130000 -22.6230000  -0.3200000  -9.9370000 -21.8520000   1.5510000
  -9.6210000 -20.8330000   1.3280000 -11.4330000 -22.0220000   1.1800000
 -11.7500000 -23.0410000   1.4030000 -12.0330000 -21.3200000   1.7590000
 -11.5690000 -21.8240000   0.1170000  -9.7570000 -22.1080000   2.9520000
 -10.2920000 -21.4940000   3.4610000  -7.6080000 -22.6900000   1.1100000
  -6.9800000 -23.6560000   1.5770000  -7.0430000 -21.5100000   0.8900000
  -7.5260000 -20.7640000   0.4110000  -5.6520000 -21.3040000   1.2620000
  -5.0060000 -22.0940000   0.8780000  -5.1190000 -19.9360000   0.8010000
  -5.2770000 -19.8380000  -0.2730000  -5.8480000 -18.8000000   1.5310000
  -5.6900000 -18.8970000   2.6050000  -5.4580000 -17.8400000   1.1920000
  -6.9150000 -18.8540000   1.3150000  -3.5900000 -19.8720000   0.9860000
  -3.2810000 -18.8370000   0.8370000  -3.3670000 -20.1730000   2.0100000
  -2.8280000 -20.7790000   0.0080000  -3.0500000 -20.4780000  -1.0160000
  -1.7570000 -20.6900000   0.1880000  -3.1360000 -21.8140000   0.1570000
  -5.5290000 -21.4890000   2.7790000  -4.4690000 -21.8810000   3.2840000
  -6.6370000 -21.2730000   3.4920000  -7.4710000 -20.9280000   3.0390000
  -6.6520000 -21.4320000   4.9450000  -5.7350000 -21.0240000   5.3690000
  -7.8430000 -20.6950000   5.5570000  -8.7430000 -21.1210000   5.1140000
  -7.8310000 -20.9040000   6.6270000  -7.8320000 -19.1750000   5.3320000
  -7.9480000 -18.9820000   4.2660000  -8.6720000 -18.7390000   5.8730000
  -6.5320000 -18.5500000   5.8230000  -6.2770000 -18.9880000   6.7880000
  -5.7440000 -18.7740000   5.1040000  -6.6710000 -17.0320000   5.9720000
  -7.0310000 -16.6160000   5.0310000  -7.3910000 -16.8190000   6.7620000
  -5.3580000 -16.4160000   6.3180000  -4.6900000 -16.6130000   5.5860000
  -5.4690000 -15.4170000   6.4120000  -5.0250000 -16.8010000   7.1900000
  -6.6470000 -22.9000000   5.4060000  -6.2250000 -23.1970000   6.5340000
  -7.1260000 -23.8240000   4.5760000  -7.6700000 -23.6160000   3.7510000
  -6.9620000 -25.2240000   4.9630000  -7.0690000 -25.2980000   6.0450000
  -7.9860000 -26.1530000   4.3050000  -7.6830000 -27.1830000   4.4910000
  -8.9570000 -25.9720000   4.7650000  -8.0770000 -25.9340000   2.9130000
  -8.7260000 -26.5320000   2.5370000  -5.5210000 -25.6630000   4.6880000
  -4.9810000 -26.5130000   5.3970000  -4.8940000 -25.0790000   3.6750000
  -5.3820000 -24.5410000   2.9730000  -3.4560000 -25.2640000   3.5280000
  -3.2290000 -26.3280000   3.4570000  -2.9440000 -24.5690000   2.2620000
  -3.4590000 -23.6110000   2.1910000  -1.8730000 -24.3980000   2.3690000
  -3.2010000 -25.3700000   1.0140000  -3.4930000 -26.5860000   1.1190000
  -3.0950000 -24.7900000  -0.0870000  -2.7150000 -24.7340000   4.7660000
  -1.7590000 -25.3540000   5.2310000  -3.1380000 -23.5900000   5.3090000
  -3.8540000 -23.0200000   4.8830000  -2.4560000 -23.0740000   6.4970000
  -1.3890000 -22.9790000   6.2950000  -2.9960000 -21.6980000   6.9580000
  -4.0810000 -21.7550000   7.0460000  -2.3950000 -21.3110000   8.3100000
  -1.3100000 -21.2540000   8.2230000  -2.7860000 -20.3410000   8.6180000
  -2.6600000 -22.0620000   9.0540000  -2.6660000 -20.6190000   5.9220000
  -3.1250000 -20.8780000   4.9680000  -3.0530000 -19.6580000   6.2620000
  -1.5850000 -20.5520000   5.7980000  -2.5060000 -24.1050000   7.6280000
  -1.5190000 -24.3230000   8.3360000  -3.6510000 -24.7630000   7.7760000
  -4.4460000 -24.5230000   7.2010000  -3.8050000 -25.8240000   8.7550000
  -3.6720000 -25.4230000   9.7600000  -5.2110000 -26.4470000   8.6560000
  -5.9530000 -25.6780000   8.8700000  -5.4040000 -26.8730000   7.6720000
  -5.4340000 -27.5500000   9.6540000  -4.9070000 -28.8180000   9.6240000
  -4.2370000 -29.0580000   8.7990000  -5.3690000 -29.5450000  10.7050000
  -5.1360000 -30.5060000  10.9090000  -6.2030000 -28.7510000  11.4530000
  -6.9010000 -29.0330000  12.6330000  -6.8000000 -30.0240000  13.0760000
  -7.6740000 -28.0340000  13.1600000  -8.2320000 -28.2160000  14.0790000
  -7.7670000 -26.7820000  12.5480000  -8.3880000 -25.9970000  12.9790000
  -7.0820000 -26.5000000  11.3890000  -7.1720000 -25.4990000  10.9680000
  -6.2830000 -27.4980000  10.8190000  -2.7700000 -26.9200000   8.5310000
  -2.1080000 -27.3670000   9.4740000  -2.6670000 -27.3770000   7.2880000
  -3.2280000 -26.9780000   6.5490000  -1.7760000 -28.4640000   6.9600000
  -2.0330000 -29.3420000   7.5530000  -1.8890000 -28.8260000   5.4720000
  -1.5510000 -27.9730000   4.8840000  -1.2420000 -29.6810000   5.2760000
  -3.2240000 -29.1500000   5.1110000  -3.2580000 -29.3710000   4.1770000
  -0.3520000 -28.0270000   7.2970000   0.4520000 -28.8290000   7.8010000
  -0.0570000 -26.7550000   7.0290000  -0.7390000 -26.1680000   6.5700000
   1.2680000 -26.1940000   7.3050000   2.0200000 -26.7920000   6.7910000
   1.3910000 -24.7330000   6.8290000   1.1590000 -24.7090000   5.7640000
   0.7260000 -24.0520000   7.3600000   2.7910000 -24.1780000   6.9800000
   3.7640000 -24.4510000   6.0290000   3.5010000 -25.0430000   5.1520000
   5.0930000 -23.9670000   6.1890000   5.8450000 -24.1870000   5.4320000
   5.4320000 -23.2160000   7.3060000   6.4460000 -22.8350000   7.4290000
   4.4640000 -22.9500000   8.2750000   4.7180000 -22.3650000   9.1590000
   3.1500000 -23.4420000   8.1070000   2.3940000 -23.2480000   8.8680000
   1.5830000 -26.3100000   8.7990000   2.7040000 -26.6540000   9.1810000
   0.5890000 -26.0340000   9.6400000  -0.2730000 -25.6320000   9.3000000
   0.7110000 -26.3010000  11.0660000   1.4970000 -25.6590000  11.4640000
  -0.2380000 -26.0490000  11.5400000   1.0530000 -27.7620000  11.3800000
   1.8780000 -28.0140000  12.2610000   0.4410000 -28.7220000  10.6860000
  -0.2820000 -28.5120000  10.0120000   0.7930000 -30.1240000  10.9120000
   0.7750000 -30.3660000  11.9750000  -0.1500000 -31.0730000  10.1540000
  -0.0900000 -30.8530000   9.0880000   0.2450000 -32.5390000  10.3980000
   0.1850000 -32.7590000  11.4640000  -0.4340000 -33.1940000   9.8530000
   1.2650000 -32.7040000  10.0500000  -1.6070000 -30.8210000  10.5630000
  -1.8290000 -29.7760000  10.3470000  -2.2340000 -31.4610000   9.9420000
  -1.8910000 -31.1090000  12.0460000  -1.2650000 -30.4690000  12.6670000
  -2.9410000 -30.9080000  12.2610000  -1.6700000 -32.1540000  12.2630000
   2.2450000 -30.3940000  10.4580000   3.0190000 -31.0880000  11.1440000
   2.5960000 -29.8520000   9.2960000   1.8940000 -29.3830000   8.7410000
   3.9360000 -29.9960000   8.7380000   4.1810000 -31.0500000   8.6040000
   3.9910000 -29.3010000   7.3700000   3.2430000 -29.8830000   6.8320000
   3.5950000 -28.3080000   7.5810000   5.2410000 -29.1760000   6.5200000
   5.8560000 -28.3690000   6.9180000   6.0270000 -30.4550000   6.5290000
   5.4130000 -31.2620000   6.1300000   6.9180000 -30.3390000   5.9120000
   6.3220000 -30.6940000   7.5510000   4.8470000 -28.7930000   5.0760000
   4.3170000 -27.8410000   5.0840000   5.7450000 -28.7030000   4.4650000
   4.2000000 -29.5650000   4.6590000   5.0110000 -29.4740000   9.6960000
   6.1090000 -30.0440000   9.7800000   4.6930000 -28.4210000  10.4450000
   3.8600000 -27.8820000  10.2560000   5.5990000 -27.9530000  11.4910000
   6.5800000 -27.7590000  11.0570000   5.0920000 -26.6730000  12.1390000
   4.0340000 -26.8670000  12.3170000   5.6070000 -26.5670000  13.0940000
   5.2440000 -25.3930000  11.3370000   4.8140000 -25.5330000  10.3450000
   4.5140000 -24.2460000  12.0540000   4.9440000 -24.1050000  13.0460000
   4.6240000 -23.3280000  11.4770000   3.4560000 -24.4910000  12.1480000
   6.7270000 -25.0690000  11.1550000   7.2160000 -25.8860000  10.6250000
   6.8310000 -24.1500000  10.5790000   7.1940000 -24.9400000  12.1320000
   5.8970000 -28.9860000  12.5700000   6.9950000 -28.9740000  13.1580000
   4.9450000 -29.8820000  12.8330000   4.0490000 -29.8560000  12.3670000
   5.1760000 -30.9240000  13.8310000   5.7460000 -30.5010000  14.6590000
   3.8780000 -31.5390000  14.3900000   4.1280000 -32.2210000  15.2030000
   2.9650000 -30.4550000  14.9060000   2.7140000 -29.7730000  14.0930000
   2.0520000 -30.9040000  15.2980000   3.4680000 -29.9030000  15.7000000
   3.2140000 -32.2790000  13.3550000   2.4060000 -32.6620000  13.7040000
   5.9950000 -32.0360000  13.2220000   6.6910000 -32.7360000  13.9390000
   5.9130000 -32.2130000  11.9040000   5.2230000 -31.7260000  11.3500000
   6.7770000 -33.1760000  11.2390000   6.7250000 -34.1350000  11.7550000
   6.3420000 -33.3790000   9.7850000   6.2390000 -32.3910000   9.3360000
   7.1390000 -33.9260000   9.2810000   5.0370000 -34.1390000   9.6390000
   5.1550000 -35.1250000  10.0890000   4.2680000 -33.5840000  10.1760000
   4.6290000 -34.2920000   8.1910000   4.1040000 -33.3060000   7.6080000
   4.8410000 -35.3890000   7.6300000   8.2390000 -32.7170000  11.3210000
   9.1540000 -33.5130000  11.5780000   8.4540000 -31.4260000  11.1080000
   7.6940000 -30.8070000  10.8650000   9.7940000 -30.8740000  11.1820000
  10.4700000 -31.4450000  10.5450000   9.7860000 -29.4210000  10.7070000
   8.9340000 -28.9790000  11.2230000  10.7060000 -28.9610000  11.0670000
   9.6510000 -29.1810000   9.2030000   8.8870000 -29.8480000   8.8040000
   9.2510000 -27.7180000   8.9250000  10.0150000 -27.0500000   9.3230000
   9.1590000 -27.5640000   7.8500000   8.2960000 -27.5040000   9.4050000
  10.9700000 -29.5150000   8.4900000  11.2220000 -30.5610000   8.6620000
  10.8600000 -29.3400000   7.4200000  11.7660000 -28.8810000   8.8810000
  10.3440000 -30.9470000  12.6030000  11.4860000 -31.3800000  12.8200000
   9.5540000 -30.5130000  13.5810000   8.6800000 -30.0490000  13.3770000
  10.0440000 -30.4910000  14.9530000  11.0940000 -30.1990000  14.9420000
   9.2520000 -29.4820000  15.8590000   9.5420000 -29.6360000  16.8990000
   9.5610000 -28.0450000  15.4530000   9.2710000 -27.8900000  14.4140000
   9.0040000 -27.3590000  16.0910000  10.6290000 -27.8570000  15.5640000
   7.8400000 -29.6850000  15.7330000   7.3750000 -29.0590000  16.2940000
  10.1910000 -31.8940000  15.5970000  10.8700000 -32.0470000  16.6210000
   9.5930000 -32.9170000  14.9890000   8.9820000 -32.7650000  14.2000000
   9.7450000 -34.2820000  15.4960000  10.2180000 -34.2580000  16.4780000
   8.3840000 -34.9940000  15.6220000   8.5360000 -35.9860000  16.0480000
   7.4550000 -34.1890000  16.5260000   7.3020000 -33.1970000  16.1000000
   6.4960000 -34.7000000  16.6090000   7.9020000 -34.0940000  17.5150000
   7.7900000 -35.1300000  14.3260000   6.9430000 -35.5740000  14.4070000
  10.6840000 -35.1180000  14.6270000  10.8670000 -36.3170000  14.8540000
  11.2930000 -34.4830000  13.6290000  11.1440000 -33.4970000  13.4710000
  12.1390000 -35.2060000  12.7030000  12.5290000 -34.5140000  11.9560000
  13.3240000 -35.8710000  13.4220000  12.9140000 -36.6910000  14.0110000
  13.9770000 -36.2720000  12.6470000  14.1260000 -34.9410000  14.3330000
  13.4560000 -34.5610000  15.1050000  14.9210000 -35.5240000  14.7980000
  14.7350000 -33.7700000  13.5670000  15.3030000 -34.1700000  12.7270000
  13.9230000 -33.1470000  13.1920000  15.6670000 -32.9180000  14.4610000
  16.0970000 -32.1490000  13.8190000  15.0330000 -32.4490000  15.2140000
  16.7700000 -33.6780000  15.1390000  17.3580000 -34.1120000  14.4420000
  17.3230000 -33.0430000  15.6970000  16.3720000 -34.3900000  15.7340000
  11.3290000 -36.2590000  11.9430000  11.8290000 -37.3460000  11.6420000
  10.0760000 -35.9450000  11.6300000   9.5970000 -35.1610000  12.0490000
   9.3600000 -36.7490000  10.6540000   8.9070000 -36.0420000   9.9590000
  10.1190000 -37.3330000  10.1340000   8.2880000 -37.6850000  11.1730000
   7.6980000 -38.4620000  10.4140000   8.0220000 -37.6190000  12.4650000
   8.5280000 -36.9880000  13.0700000   7.0290000 -38.5010000  13.0630000
   7.2360000 -39.5410000  12.8120000   7.0880000 -38.3440000  14.5770000
   7.2210000 -37.2860000  14.8030000   6.1400000 -38.6870000  14.9910000
   8.2080000 -39.1270000  15.1830000   9.1480000 -38.8600000  14.7000000
   8.2740000 -38.9110000  16.2490000   7.9390000 -40.6120000  14.9820000
   6.8840000 -40.8090000  14.7930000   8.5370000 -41.0240000  14.1690000
   8.3170000 -41.2630000  16.2080000   9.0870000 -40.8460000  16.7120000
   7.7390000 -42.3280000  16.7160000   6.7100000 -42.9290000  16.1070000
   6.3600000 -42.5630000  15.2330000   6.2880000 -43.7460000  16.5240000
   8.2220000 -42.7940000  17.8470000   9.0060000 -42.3330000  18.2860000
   7.8070000 -43.6110000  18.2710000   5.5980000 -38.2470000  12.5660000
   5.1690000 -37.0970000  12.4240000   4.8600000 -39.3190000  12.3080000
   5.2880000 -40.2330000  12.2810000   3.4230000 -39.2100000  11.9920000
   3.2590000 -38.6130000  11.0950000   2.7800000 -40.5970000  11.7860000
   2.8570000 -41.1610000  12.7150000   1.2790000 -40.4600000  11.3840000
   1.2010000 -39.8960000  10.4540000   0.8480000 -41.4510000  11.2440000
   0.7380000 -39.9360000  12.1720000   3.5490000 -41.3830000  10.7200000
   4.5830000 -41.5130000  11.0390000   3.0860000 -42.3600000  10.5840000
   3.5260000 -40.8360000   9.7780000   2.6840000 -38.4460000  13.0970000
   2.9180000 -38.6910000  14.2940000   1.8220000 -37.4850000  12.7050000
   1.5780000 -37.1650000  11.2880000   0.9520000 -37.9370000  10.8400000
   2.5270000 -37.1130000  10.7550000   0.8870000 -35.8320000  11.3600000
   0.2040000 -35.7400000  10.5150000   1.6350000 -35.0410000  11.3090000
   0.1710000 -35.7910000  12.6310000  -0.8200000 -36.2210000  12.4860000
   0.0730000 -34.7820000  13.0310000   0.9840000 -36.6650000  13.6040000
   1.6540000 -36.1110000  14.2620000   0.0010000 -37.4960000  14.4540000
  -0.2990000 -38.6350000  14.0910000  -0.4980000 -36.9290000  15.5570000
  -0.1790000 -36.0100000  15.8300000  -1.4610000 -37.6220000  16.4290000
  -1.4990000 -37.1220000  17.3970000  -2.8770000 -37.6150000  15.8140000
  -2.9040000 -38.2770000  14.9480000  -3.5450000 -37.9990000  16.5850000
  -3.3260000 -36.2260000  15.4030000  -3.9310000 -35.3810000  16.3110000
  -4.0950000 -35.7330000  17.3290000  -4.3270000 -34.1070000  15.9480000
  -4.8230000 -33.4600000  16.6710000  -4.0910000 -33.6540000  14.6610000
  -4.4700000 -32.3720000  14.2990000  -4.8860000 -31.8870000  15.0160000
  -3.4840000 -34.4710000  13.7420000  -3.3030000 -34.1220000  12.7250000
  -3.0990000 -35.7510000  14.1150000  -2.6090000 -36.4050000  13.3930000
  -1.0460000 -39.0550000  16.7150000  -1.8100000 -39.9900000  16.4520000
   0.1560000 -39.2290000  17.2840000   0.9560000 -38.1560000  17.8980000
   0.4160000 -37.7450000  18.7510000   1.1280000 -37.3690000  17.1640000
   2.2120000 -38.8450000  18.2960000   2.5760000 -38.4000000  19.2220000
   2.9530000 -38.7030000  17.5090000   1.8990000 -40.2750000  18.4720000
   1.5830000 -40.4020000  19.5070000   2.7200000 -40.9590000  18.2570000
   0.7240000 -40.5570000  17.5310000   0.9990000 -41.0040000  16.5760000
  -0.2840000 -41.4580000  18.2430000  -0.8440000 -41.0550000  19.2690000
  -0.5130000 -42.6460000  17.6960000  -0.1460000 -42.8730000  16.7830000
  -1.2920000 -43.6470000  18.3900000  -1.0460000 -44.6220000  17.9690000
  -1.0130000 -43.6250000  19.4430000  -2.7840000 -43.4220000  18.2710000
  -3.5660000 -44.1220000  18.9230000  -3.1790000 -42.4400000  17.4590000
  -2.4990000 -41.8300000  17.0280000  -4.5870000 -42.2230000  17.1610000
  -5.2020000 -42.7870000  17.8620000  -4.9410000 -40.7460000  17.2820000
  -4.3390000 -40.2250000  16.5380000  -5.9960000 -40.6610000  17.0200000
  -4.7080000 -40.1240000  18.6470000  -5.1670000 -40.7340000  19.4250000
  -3.6400000 -40.0300000  18.8430000  -5.4620000 -38.4780000  18.6590000
  -5.1310000 -37.9880000  20.3540000  -4.0550000 -37.9810000  20.5270000
  -5.5330000 -36.9900000  20.5290000  -5.6040000 -38.6950000  21.0360000
  -4.8920000 -42.6700000  15.7410000  -4.1770000 -42.3220000  14.8020000
  -5.9610000 -43.4330000  15.5740000  -6.4700000 -43.7990000  16.3660000
  -6.4270000 -43.7720000  14.2380000  -5.5930000 -43.9640000  13.5630000
  -7.3130000 -45.0100000  14.2810000  -7.7260000 -45.1920000  13.2890000
  -6.4930000 -46.2200000  14.7200000  -6.0800000 -46.0390000  15.7120000
  -7.1330000 -47.1020000  14.7490000  -5.6800000 -46.3840000  14.0130000
  -8.4750000 -44.7700000  15.2340000  -9.0590000 -43.9170000  14.8880000
  -9.1090000 -45.6560000  15.2650000  -8.0900000 -44.5640000  16.2330000
  -7.2250000 -42.6030000  13.6590000  -7.6040000 -41.6800000  14.3930000
  -7.4760000 -42.6450000  12.3530000  -7.1210000 -43.4130000  11.8010000
  -8.1830000 -41.5640000  11.6650000  -7.5640000 -40.6670000  11.6490000
  -8.4940000 -41.9670000  10.2270000  -8.7330000 -43.0300000  10.2220000
  -9.3520000 -41.4000000   9.8660000  -7.3300000 -41.7290000   9.2930000
  -6.3450000 -41.0750000   9.6510000  -7.4460000 -42.2420000   8.0760000
  -6.7010000 -42.1170000   7.4050000  -8.2790000 -42.7560000   7.8250000
  -9.4710000 -41.0880000  12.3320000  -9.7190000 -39.8890000  12.4290000
 -10.3000000 -42.0250000  12.7810000 -10.0860000 -43.0070000  12.6820000
 -11.5720000 -41.6520000  13.4010000 -12.1140000 -40.9830000  12.7330000
 -12.4460000 -42.8780000  13.6800000 -12.2550000 -43.6110000  12.8960000
 -12.1460000 -43.2910000  14.6430000 -13.9310000 -42.5440000  13.7110000
 -14.4410000 -43.1880000  14.4270000 -14.0710000 -41.5010000  13.9970000
 -14.5060000 -42.7690000  12.3350000 -13.6910000 -43.0590000  11.6720000
 -15.2280000 -43.5830000  12.4000000 -15.1690000 -41.6010000  11.7750000
 -15.3800000 -40.8350000  12.3990000 -15.5160000 -41.4910000  10.4930000
 -15.2460000 -42.4760000   9.6340000 -14.7760000 -43.3090000   9.9580000
 -15.5130000 -42.3840000   8.6640000 -16.1270000 -40.3930000  10.0690000
 -16.3260000 -39.6460000  10.7190000 -16.3900000 -40.3080000   9.0980000
 -11.3470000 -40.9020000  14.7060000 -12.0480000 -39.9310000  14.9970000
 -10.3840000 -41.3610000  15.5050000  -9.8670000 -42.2000000  15.2830000
 -10.1190000 -40.7030000  16.7730000 -11.0590000 -40.5700000  17.3090000
  -9.1640000 -41.5200000  17.6520000  -9.0810000 -42.5180000  17.2210000
  -8.1890000 -41.0340000  17.6320000  -9.6490000 -41.6280000  19.0960000
 -10.4600000 -40.9080000  19.2020000 -10.0340000 -42.6350000  19.2590000
  -8.5670000 -41.3270000  20.1230000  -7.5070000 -41.9950000  20.1010000
  -8.7930000 -40.4340000  20.9730000  -9.5760000 -39.2960000  16.5190000
  -9.8360000 -38.3820000  17.2920000  -8.8420000 -39.1250000  15.4230000
  -8.6280000 -39.9050000  14.8180000  -8.3010000 -37.8040000  15.0740000
  -7.7370000 -37.3810000  15.9050000  -7.3830000 -37.8820000  13.8480000
  -7.9560000 -38.2590000  13.0000000  -6.8200000 -36.5000000  13.5090000
  -6.2470000 -36.1230000  14.3560000  -6.1710000 -36.5750000  12.6360000
  -7.6410000 -35.8160000  13.2930000  -6.2440000 -38.8660000  14.1050000
  -6.6560000 -39.8550000  14.3060000  -5.5990000 -38.9130000  13.2280000
  -5.6630000 -38.5330000  14.9650000  -9.4320000 -36.8320000  14.7840000
  -9.5190000 -35.7520000  15.3720000 -10.3110000 -37.2260000  13.8720000
 -10.1750000 -38.0910000  13.3690000 -11.4550000 -36.3950000  13.5200000
 -11.1160000 -35.4210000  13.1660000 -12.2570000 -37.0610000  12.4140000
 -11.5680000 -37.1450000  11.5740000 -12.5790000 -38.0560000  12.7200000
 -13.4760000 -36.2380000  11.9930000 -14.1320000 -36.0980000  12.8520000
 -13.0230000 -34.8770000  11.4720000 -12.3670000 -35.0160000  10.6130000
 -13.8940000 -34.2940000  11.1730000 -12.4840000 -34.3480000  12.2580000
 -14.3070000 -36.9810000  10.9510000 -14.6520000 -37.9270000  11.3680000
 -15.1670000 -36.3730000  10.6700000 -13.6960000 -37.1750000  10.0690000
 -12.3660000 -36.0930000  14.7160000 -12.7790000 -34.9470000  14.9160000
 -12.6940000 -37.1110000  15.5070000 -12.4250000 -38.0590000  15.2850000
 -13.5380000 -36.8850000  16.6890000 -14.4640000 -36.3980000  16.3840000
 -13.8860000 -38.2090000  17.3890000 -12.9440000 -38.7130000  17.6060000
 -14.4000000 -37.9820000  18.3230000 -14.7670000 -39.1210000  16.5310000
 -15.2910000 -38.6620000  15.4910000 -14.9530000 -40.3000000  16.9050000
 -12.8860000 -35.9180000  17.6820000 -13.5380000 -35.0240000  18.2180000
 -11.5930000 -36.1090000  17.9310000 -11.0890000 -36.8410000  17.4510000
 -10.8780000 -35.3120000  18.9210000 -11.4590000 -35.2410000  19.8410000
  -9.5410000 -35.9750000  19.2380000  -9.0620000 -36.2320000  18.2930000
  -8.9260000 -35.2500000  19.7710000  -9.6950000 -37.2280000  20.0840000
 -10.3770000 -37.9120000  19.5790000  -8.7280000 -37.7120000  20.2170000
 -10.2590000 -36.9000000  21.4400000 -11.3120000 -37.4120000  21.8340000
  -9.5690000 -36.0260000  22.1640000  -9.8970000 -35.7650000  23.0830000
  -8.7190000 -35.6260000  21.7920000 -10.6430000 -33.8840000  18.4490000
 -10.7520000 -32.9280000  19.2280000 -10.3130000 -33.7420000  17.1700000
 -10.1570000 -34.5520000  16.5880000 -10.0540000 -32.4270000  16.6050000
  -9.3800000 -31.8370000  17.2270000  -9.4520000 -32.5350000  15.1920000
  -9.9900000 -33.3030000  14.6370000  -9.5610000 -31.2310000  14.4700000
  -9.0220000 -30.4620000  15.0240000  -9.1300000 -31.3300000  13.4740000
 -10.6100000 -30.9490000  14.3850000  -7.9810000 -33.0100000  15.2770000
  -7.9410000 -33.9870000  15.7590000  -7.5640000 -33.0830000  14.2730000
  -7.4010000 -32.2950000  15.8600000 -11.3090000 -31.5520000  16.6150000
 -11.2430000 -30.3660000  16.9430000 -12.4510000 -32.1360000  16.2680000
 -12.4540000 -33.0650000  15.8730000 -13.7220000 -31.4170000  16.3590000
 -13.6170000 -30.4360000  15.8950000 -14.8440000 -32.1780000  15.6470000
 -14.7340000 -33.2350000  15.8900000 -15.7930000 -31.8130000  16.0390000
 -14.8170000 -32.0000000  14.1390000 -13.8160000 -32.2560000  13.7920000
 -15.5400000 -32.6890000  13.7020000 -15.1530000 -30.5760000  13.7150000
 -16.2790000 -30.0970000  14.0000000 -14.2940000 -29.9260000  13.0880000
 -14.0890000 -31.1330000  17.8130000 -14.7990000 -30.1720000  18.1000000
 -13.5850000 -31.9520000  18.7300000 -13.0790000 -32.7840000  18.4630000
 -13.8020000 -31.7000000  20.1490000 -14.7940000 -31.2720000  20.2950000
 -13.7040000 -32.9950000  20.9600000 -12.8490000 -33.5480000  20.5720000
 -13.5110000 -32.7080000  21.9940000 -14.9470000 -33.8740000  20.9010000
 -15.8110000 -33.2730000  21.1850000 -15.0730000 -34.2290000  19.8780000
 -14.8260000 -35.0750000  21.8480000 -15.6030000 -35.7980000  21.5990000
 -13.8470000 -35.5330000  21.7100000 -14.9720000 -34.6940000  23.2560000
 -15.9120000 -34.6510000  23.6230000 -13.9580000 -34.4070000  24.0710000
 -12.7060000 -34.4510000  23.6260000 -12.5230000 -34.7030000  22.6650000
 -11.9430000 -34.2320000  24.2510000 -14.1960000 -34.0730000  25.3330000
 -15.1470000 -34.0370000  25.6720000 -13.4250000 -33.8560000  25.9490000
 -12.8190000 -30.6770000  20.7170000 -12.8300000 -30.4220000  21.9260000
 -11.9630000 -30.1060000  19.8670000 -11.9330000 -30.3810000  18.8960000
 -11.0470000 -29.0680000  20.3200000 -11.0030000 -28.3130000  19.5350000
 -11.4780000 -28.6300000  21.2200000  -9.6340000 -29.5450000  20.6280000
  -8.7550000 -28.7450000  20.9680000  -9.4070000 -30.8450000  20.5030000
 -10.1550000 -31.4880000  20.2870000  -8.0820000 -31.3860000  20.7410000
  -7.7230000 -31.0550000  21.7150000  -8.1000000 -32.9120000  20.7210000
  -8.7470000 -33.2310000  21.5380000  -8.5060000 -33.2700000  19.7750000
  -6.7130000 -33.4840000  20.9230000  -6.1540000 -33.5650000  22.1910000
  -6.7430000 -33.2330000  23.0460000  -4.8740000 -34.0560000  22.3820000
  -4.4460000 -34.1070000  23.3830000  -4.1350000 -34.4760000  21.2930000
  -2.8590000 -34.9820000  21.4810000  -2.5920000 -34.9940000  22.4030000
  -4.6680000 -34.3990000  20.0210000  -4.0850000 -34.7270000  19.1600000
  -5.9500000 -33.9020000  19.8420000  -6.3740000 -33.8350000  18.8400000
  -7.0550000 -30.8680000  19.7220000  -7.3280000 -30.7800000  18.5160000
  -5.8840000 -30.5060000  20.2250000  -5.7580000 -30.5130000  21.2270000
  -4.7560000 -30.1010000  19.3880000  -4.9440000 -30.3850000  18.3530000
  -4.5580000 -28.5900000  19.4500000  -4.3960000 -28.3340000  20.4970000
  -3.6580000 -28.3650000  18.8780000  -5.7210000 -27.7780000  18.9040000
  -6.6150000 -28.0150000  19.4810000  -5.4890000 -26.7190000  19.0130000
  -5.9660000 -28.0930000  17.4430000  -5.0190000 -28.0140000  16.9080000
  -6.3420000 -29.1130000  17.3670000  -6.9370000 -27.1860000  16.8170000
  -6.5850000 -26.3140000  16.4480000  -8.2440000 -27.4420000  16.7110000
  -8.7510000 -28.5760000  17.1940000  -8.1430000 -29.2460000  17.6430000
  -9.7400000 -28.7600000  17.1090000  -9.0490000 -26.5660000  16.1180000
  -8.6700000 -25.7060000  15.7480000 -10.0360000 -26.7640000  16.0400000
  -3.5120000 -30.8040000  19.9240000  -3.4310000 -31.0940000  21.1280000
  -2.5480000 -31.0960000  19.0500000  -2.6600000 -30.9160000  18.0620000
  -1.3190000 -31.7440000  19.5010000  -1.5710000 -32.6430000  20.0630000
  -0.4270000 -32.1390000  18.3190000  -0.3490000 -31.2630000  17.6760000
   0.5540000 -32.3760000  18.7300000  -0.9330000 -33.3150000  17.5100000
  -0.9600000 -34.1970000  18.1490000  -1.9400000 -33.0930000  17.1560000
   0.1410000 -33.6430000  16.0860000  -0.3870000 -32.3780000  14.9350000
  -0.2260000 -31.3940000  15.3760000   0.1900000 -32.4610000  14.0140000
  -1.4460000 -32.5070000  14.7130000  -0.5640000 -30.8160000  20.4510000
  -0.5150000 -29.6030000  20.2350000   0.0260000 -31.3850000  21.5130000
  -0.0520000 -32.8070000  21.8970000   0.1750000 -33.4310000  21.0320000
  -1.0570000 -33.0330000  22.2540000   0.9930000 -32.9270000  22.9930000
   1.9570000 -33.2010000  22.5640000   0.6910000 -33.6830000  23.7180000
   1.0410000 -31.5660000  23.6260000   2.0400000 -31.4240000  24.0370000
   0.3000000 -31.3920000  24.4060000   0.8140000 -30.5940000  22.4620000
   0.2450000 -29.7020000  22.7240000   2.1580000 -30.1830000  21.8670000
   2.5210000 -30.6170000  20.7700000   2.8830000 -29.3420000  22.5950000
   2.4880000 -28.9700000  23.4470000   4.2210000 -28.9170000  22.2120000
   4.2030000 -28.4340000  21.2350000   4.7410000 -27.9140000  23.2430000
   3.9700000 -27.1790000  23.4720000   5.0300000 -28.4330000  24.1570000
   6.1890000 -26.9740000  22.7220000   6.3050000 -26.2650000  23.8410000
   5.1760000 -30.1080000  22.1330000   5.3680000 -30.8290000  23.1240000
   5.7790000 -30.3190000  20.9520000   5.5700000 -29.4950000  19.7480000
   6.1060000 -28.5520000  19.8510000   4.5060000 -29.2950000  19.6200000
   6.1260000 -30.3570000  18.6540000   6.4500000 -29.7500000  17.8090000
   5.3850000 -31.0820000  18.3170000   7.3020000 -31.0530000  19.3200000
   8.1250000 -30.3380000  19.3400000   7.6370000 -31.9790000  18.8530000
   6.8180000 -31.3330000  20.7510000   6.3830000 -32.3190000  20.9140000
   7.9770000 -31.1240000  21.7190000   8.2760000 -29.9760000  22.0480000
   8.6260000 -32.2170000  22.1540000   8.3400000 -33.5950000  21.7090000
   8.5580000 -33.6810000  20.6440000   7.2870000 -33.8170000  21.8830000
   9.2500000 -34.4390000  22.5530000   9.6140000 -35.2720000  21.9510000
   8.6850000 -34.8240000  23.4020000  10.3830000 -33.5580000  23.0160000
  11.1730000 -33.6200000  22.2670000  10.7900000 -33.8110000  23.9950000
   9.7960000 -32.1290000  23.0430000   9.4610000 -31.8040000  24.0280000
  10.8290000 -31.1350000  22.5020000  11.2260000 -31.2410000  21.3370000
  11.2570000 -30.1960000  23.3400000  10.8240000 -30.1110000  24.2490000
  12.2870000 -29.2170000  22.9650000  12.5430000 -28.6130000  23.8350000
  13.5550000 -29.9030000  22.4570000  13.2360000 -30.7040000  21.7900000
  14.1110000 -29.1580000  21.8880000  14.4490000 -30.4790000  23.5520000
  14.3130000 -29.8790000  24.4520000  14.1260000 -31.5020000  23.7460000
  15.9230000 -30.4770000  23.1570000  16.2730000 -31.1740000  22.1770000
  16.7260000 -29.7770000  23.8260000  11.8220000 -28.2040000  21.9260000
  12.6030000 -27.3500000  21.5060000  10.5780000 -28.3100000  21.4690000
   9.9940000 -29.1150000  21.6430000  10.0490000 -27.2400000  20.6320000
  10.8300000 -26.9040000  19.9500000   8.8420000 -27.6950000  19.8070000
   9.1120000 -28.4830000  19.1040000   8.0290000 -28.0410000  20.4450000
   8.1540000 -26.3360000  18.8040000   7.1780000 -27.0510000  18.2510000
   9.6710000 -26.0570000  21.5320000   8.9030000 -26.2200000  22.4790000
  10.2270000 -24.8640000  21.2490000  11.0930000 -24.5650000  20.1010000
  10.4920000 -24.4960000  19.1940000  11.8360000 -25.3540000  19.9840000
  11.7080000 -23.2530000  20.4860000  11.9550000 -22.6850000  19.5890000
  12.6140000 -23.4280000  21.0660000  10.6700000 -22.5480000  21.3130000
  10.0250000 -22.0250000  20.6070000  11.0500000 -21.8410000  22.0500000
   9.8810000 -23.6620000  22.0140000  10.1410000 -23.8160000  23.0610000
   8.3920000 -23.3820000  21.8990000   7.7910000 -23.6250000  20.8470000
   7.8080000 -22.8720000  22.9760000   8.3590000 -22.6920000  23.8030000
   6.3700000 -22.6300000  23.0360000   5.8270000 -23.5530000  22.8300000
   5.9790000 -22.1340000  24.4290000   6.4010000 -21.1370000  24.5530000
   4.8910000 -22.0750000  24.4640000   6.4740000 -23.0380000  25.5510000
   6.0650000 -24.0300000  25.3590000   7.5620000 -23.0780000  25.5030000
   6.0420000 -22.5690000  26.9430000   6.6860000 -21.6410000  27.4890000
   5.0710000 -23.1400000  27.4980000   5.8890000 -21.6440000  21.9690000
   4.7480000 -21.7250000  21.5150000   6.7500000 -20.7020000  21.6000000
   7.6680000 -20.6740000  22.0190000   6.4010000 -19.6690000  20.6300000
   5.4780000 -19.1730000  20.9310000   7.5170000 -18.6190000  20.5480000
   7.3040000 -17.9540000  19.7110000   7.5210000 -18.0460000  21.4750000
   8.7900000 -19.2240000  20.3600000   9.4640000 -18.5420000  20.3130000
   6.1590000 -20.2780000  19.2520000   5.3680000 -19.7780000  18.4650000
   6.8440000 -21.3760000  18.9700000   7.5440000 -21.7160000  19.6140000
   6.6570000 -22.0880000  17.7140000   6.4850000 -21.3710000  16.9110000
   7.8990000 -22.9310000  17.3640000   8.7250000 -22.2250000  17.4520000
   7.9880000 -23.6920000  18.1400000   7.9430000 -23.5990000  15.9870000
   7.1550000 -24.3510000  15.9400000   7.7390000 -22.5750000  14.8670000
   8.5270000 -21.8230000  14.9130000   7.7750000 -23.0800000  13.9020000
   6.7690000 -22.0920000  14.9880000   9.2840000 -24.3100000  15.8120000
   9.3980000 -25.0670000  16.5880000   9.3180000 -24.7870000  14.8320000
  10.0940000 -23.5840000  15.8910000   5.4250000 -22.9640000  17.7990000
   4.7870000 -23.2220000  16.7870000   5.0830000 -23.4240000  19.0020000
   5.6660000 -23.2810000  19.8140000   3.8800000 -24.2330000  19.1490000
   3.7840000 -24.8860000  18.2810000   3.9160000 -25.0950000  20.4050000
   4.7150000 -25.8310000  20.3210000   4.0770000 -24.4840000  21.2930000
   2.6490000 -25.8620000  20.6370000   1.8810000 -25.7040000  21.7720000
   0.8290000 -26.5020000  21.7060000   0.1020000 -26.5290000  22.5170000
   0.8790000 -27.1660000  20.5620000   0.2060000 -27.8450000  20.2360000
   2.0090000 -26.7800000  19.8750000   2.2300000 -27.2150000  18.9000000
   2.6430000 -23.3470000  19.1390000   1.5670000 -23.7960000  18.7240000
   2.7950000 -22.1000000  19.5980000   3.6600000 -21.8230000  20.0390000
   1.7380000 -21.0970000  19.4510000   0.8630000 -21.4020000  20.0250000
   2.2050000 -19.7310000  19.9600000   3.1660000 -19.5210000  19.4900000
   1.4760000 -18.9850000  19.6450000   2.3590000 -19.6810000  21.4660000
   1.7800000 -20.5540000  22.1670000   3.0570000 -18.7540000  21.9480000
   1.3860000 -20.9440000  17.9730000   0.2180000 -20.9760000  17.5820000
   2.4220000 -20.7570000  17.1620000   3.3510000 -20.6840000  17.5510000
   2.2660000 -20.6270000  15.7240000   1.7300000 -19.7090000  15.4850000
   3.6430000 -20.5760000  15.0590000   4.2610000 -19.9540000  15.7060000
   4.0400000 -21.5910000  15.0440000   3.6540000 -20.0050000  13.6440000
   2.9570000 -20.5640000  13.0190000   3.2320000 -18.5310000  13.6880000
   3.9290000 -17.9720000  14.3120000   3.2390000 -18.1200000  12.6780000
   2.2280000 -18.4520000  14.1050000   5.0360000 -20.1400000  13.0530000
   5.3160000 -21.1930000  13.0200000   5.0410000 -19.7310000  12.0420000
   5.7500000 -19.5930000  13.6690000   1.4630000 -21.8050000  15.1700000
   0.4950000 -21.6060000  14.4340000   1.8660000 -23.0340000  15.5200000
   2.7150000 -23.1830000  16.0470000   1.0850000 -24.1970000  15.1260000
   1.1410000 -24.3320000  14.0460000   1.6230000 -25.4550000  15.8030000
   1.5970000 -25.2790000  16.8780000   0.9450000 -26.2710000  15.5520000
   3.0400000 -25.8250000  15.3840000   3.0090000 -26.1960000  14.3600000
   3.6560000 -24.9270000  15.4260000   3.7610000 -27.0900000  16.4530000
   5.3700000 -27.2700000  15.6950000   5.8960000 -26.3160000  15.7260000
   5.9460000 -28.0190000  16.2380000   5.2510000 -27.5850000  14.6580000
  -0.3780000 -24.0100000  15.5100000  -1.2780000 -24.2230000  14.6860000
  -0.6220000 -23.6310000  16.7660000   0.1380000 -23.4910000  17.4170000
  -1.9870000 -23.5560000  17.2710000  -2.5160000 -24.4750000  17.0170000
  -2.0150000 -23.3800000  18.7940000  -1.3420000 -22.5810000  19.1040000
  -3.0250000 -23.1590000  19.1400000  -1.4850000 -24.8680000  19.7010000
  -1.6370000 -24.3510000  20.9170000  -2.8080000 -22.4760000  16.5390000
  -4.0010000 -22.6690000  16.2880000  -2.1630000 -21.3800000  16.1450000
  -1.2320000 -21.1890000  16.4860000  -2.8060000 -20.3830000  15.2870000
  -3.7590000 -20.0800000  15.7220000  -1.9200000 -19.1490000  15.1470000
  -0.9610000 -19.4640000  14.7370000  -2.4030000 -18.4610000  14.4530000
  -1.6970000 -18.4530000  16.4750000  -2.6300000 -17.9750000  16.7750000
  -1.4200000 -19.2040000  17.2150000  -0.6060000 -17.3980000  16.4230000
  -0.1050000 -17.0510000  15.3570000  -0.2340000 -16.8810000  17.5870000
   0.4880000 -16.1750000  17.6150000  -0.6740000 -17.1960000  18.4400000
  -3.1580000 -20.9660000  13.9170000  -4.2220000 -20.6750000  13.3630000
  -2.2870000 -21.8100000  13.3760000  -1.3860000 -21.9810000  13.8000000
  -2.5990000 -22.4820000  12.1240000  -2.8700000 -21.7400000  11.3730000
  -1.3970000 -23.2880000  11.6060000  -1.0170000 -23.9350000  12.3960000
  -1.6980000 -23.8960000  10.7530000   0.0280000 -22.2880000  11.0390000
   0.7940000 -23.3200000  10.6960000  -3.7960000 -23.4130000  12.2920000
  -4.4790000 -23.7070000  11.3120000  -4.0460000 -23.8700000  13.5220000
  -3.4760000 -23.5590000  14.2950000  -5.0910000 -24.8630000  13.7850000
  -5.4090000 -25.3200000  12.8480000  -4.5690000 -25.9620000  14.7120000
  -4.2600000 -25.5460000  15.6710000  -5.3540000 -26.7010000  14.8730000
  -3.3900000 -26.7020000  14.1670000  -3.1000000 -26.9250000  12.8560000
  -3.7980000 -26.5250000  12.1200000  -1.9290000 -27.6440000  12.7470000
  -1.5120000 -27.9560000  11.8820000  -1.4300000 -27.8790000  14.0020000
  -0.2760000 -28.5570000  14.3990000   0.3710000 -28.9760000  13.6280000
  -0.0280000 -28.6530000  15.7440000   0.8630000 -29.1750000  16.0910000
  -0.8970000 -28.0930000  16.6880000  -0.6920000 -28.1710000  17.7560000
  -2.0550000 -27.4160000  16.2890000  -2.7090000 -27.0070000  17.0600000
  -2.3260000 -27.3040000  14.9250000  -6.3710000 -24.2830000  14.3930000
  -7.1850000 -25.0280000  14.9630000  -6.5480000 -22.9670000  14.2830000
  -5.8270000 -22.3840000  13.8810000  -7.7510000 -22.3180000  14.8150000
  -7.8470000 -22.5500000  15.8760000  -7.6850000 -20.7960000  14.6510000
  -7.5750000 -20.5830000  13.5880000  -8.6290000 -20.3840000  15.0070000
  -6.5300000 -20.1590000  15.4200000  -6.2540000 -20.8310000  16.2330000
  -5.6880000 -20.0520000  14.7360000  -6.8940000 -18.8060000  15.9870000
  -7.9520000 -18.6240000  15.7980000  -6.7150000 -18.8210000  17.0620000
  -6.1170000 -17.7130000  15.3970000  -6.2340000 -17.5510000  14.4070000
  -5.2780000 -16.9320000  16.0740000  -5.0960000 -17.1170000  17.3750000
  -5.5960000 -17.8530000  17.8520000  -4.4580000 -16.5210000  17.8820000
  -4.6190000 -15.9610000  15.4480000  -4.7570000 -15.8180000  14.4580000
  -3.9830000 -15.3710000  15.9660000  -9.0010000 -22.8910000  14.1420000
  -9.0010000 -23.1640000  12.9360000 -10.0560000 -23.1050000  14.9250000
 -10.0190000 -22.9090000  15.9150000 -11.2860000 -23.6620000  14.3770000
 -11.1140000 -24.6800000  14.0260000 -12.3630000 -23.6940000  15.4540000
 -11.8920000 -24.0900000  16.3540000 -12.6620000 -22.6600000  15.6260000
 -13.5910000 -24.5270000  15.1170000 -13.9480000 -24.2550000  14.1240000
 -13.3230000 -25.5830000  15.1290000 -14.6940000 -24.2700000  16.1420000
 -14.2250000 -24.1240000  17.1150000 -15.2200000 -23.3600000  15.8530000
 -15.6790000 -25.4190000  16.2230000 -15.1610000 -26.2870000  16.6300000
 -16.4870000 -25.1310000  16.8950000 -16.2420000 -25.7580000  14.8860000
 -15.4930000 -26.0250000  14.2630000 -16.8920000 -26.5250000  14.9790000
 -16.7230000 -24.9540000  14.5090000 -11.7670000 -22.8360000  13.1820000
 -12.1120000 -23.3860000  12.1260000 -11.8030000 -21.5160000  13.3490000
 -11.5630000 -21.1040000  14.2390000 -12.2290000 -20.6300000  12.2670000
 -13.0700000 -21.0750000  11.7360000 -12.6660000 -19.2700000  12.8240000
 -11.7830000 -18.8090000  13.2680000 -13.0000000 -18.6720000  11.9760000
 -13.7790000 -19.3430000  13.8650000 -13.3530000 -19.7170000  14.7960000
 -14.1560000 -18.3320000  14.0190000 -14.9220000 -20.2500000  13.4300000
 -15.3890000 -20.1180000  12.2740000 -15.3500000 -21.1020000  14.2430000
 -11.1090000 -20.4310000  11.2500000 -10.0260000 -19.9530000  11.5980000
 -11.3630000 -20.7920000   9.9830000 -12.5960000 -21.4050000   9.4580000
 -13.3320000 -20.6310000   9.2410000 -13.0060000 -22.0990000  10.1910000
 -12.1040000 -22.1080000   8.2080000 -12.9100000 -22.2160000   7.4820000
 -11.7000000 -23.0910000   8.4510000 -11.0130000 -21.1850000   7.6920000
 -11.4670000 -20.3470000   7.1630000 -10.2910000 -21.6780000   7.0410000
 -10.3160000 -20.6840000   8.9590000  -9.4780000 -21.3070000   9.2730000
  -9.8340000 -19.2530000   8.7500000  -8.6240000 -19.0490000   8.6010000
 -10.7470000 -18.2830000   8.7260000 -11.7330000 -18.4940000   8.7770000
 -10.3460000 -16.8980000   8.4700000  -9.6820000 -16.8700000   7.6060000
 -11.5670000 -15.9950000   8.1840000 -11.1790000 -15.0740000   7.7480000
 -12.1760000 -16.5180000   7.4460000 -12.4200000 -15.6600000   9.4010000
 -11.7540000 -15.6050000  10.2620000 -12.8660000 -14.6810000   9.2250000
 -13.5270000 -16.6840000   9.6760000 -13.5420000 -17.7800000   9.0540000
 -14.3920000 -16.3810000  10.5310000  -9.4550000 -16.3020000   9.5740000
  -8.7640000 -15.3010000   9.3450000  -9.4710000 -16.9100000  10.7610000
 -10.0960000 -17.6860000  10.9260000  -8.6500000 -16.4330000  11.8710000
  -8.4450000 -15.3700000  11.7470000  -9.3720000 -16.6390000  13.2020000
  -9.7400000 -17.6650000  13.2140000  -8.6340000 -16.5090000  13.9930000
 -10.5400000 -15.6750000  13.4300000 -11.2240000 -15.7760000  12.5870000
 -11.0450000 -15.9810000  14.3460000 -10.0980000 -14.2200000  13.5550000
  -9.4140000 -13.8780000  14.5470000 -10.4310000 -13.4130000  12.6600000
  -7.2800000 -17.1210000  11.8920000  -6.4690000 -16.8880000  12.7840000
  -7.0330000 -17.9680000  10.9000000  -7.7820000 -18.2450000  10.2820000
  -5.7160000 -18.5730000  10.7080000  -5.2500000 -18.7630000  11.6750000
  -5.8460000 -19.9030000   9.9580000  -6.7210000 -19.8420000   9.3110000
  -4.9520000 -20.0360000   9.3480000  -5.9950000 -21.0790000  10.8960000
  -5.1390000 -21.7290000  10.7150000  -5.9380000 -20.6770000  11.9080000
  -7.2810000 -21.8780000  10.7400000  -7.3340000 -22.5940000  11.5600000
  -8.1190000 -21.1850000  10.8090000  -7.3770000 -22.6030000   9.4790000
  -6.7040000 -22.3840000   8.7580000  -8.2950000 -23.5360000   9.2300000
  -9.1830000 -23.8810000  10.1570000  -9.1640000 -23.4320000  11.0620000
  -9.8720000 -24.5900000   9.9520000  -8.3280000 -24.1220000   8.0480000
  -7.6580000 -23.8600000   7.3390000  -9.0230000 -24.8290000   7.8580000
  -4.8210000 -17.5900000   9.9650000  -5.3140000 -16.7960000   9.1520000
  -3.5070000 -17.6100000  10.2490000  -2.7900000 -18.4550000  11.2210000
  -2.9090000 -19.5020000  10.9440000  -3.2070000 -18.2930000  12.2150000
  -1.3520000 -17.9840000  11.1140000  -0.7920000 -18.7240000  10.5420000
  -0.9400000 -17.9150000  12.1210000  -1.3390000 -16.6720000  10.4510000
  -0.4830000 -16.6150000   9.7790000  -1.2900000 -15.8560000  11.1720000
  -2.6440000 -16.5810000   9.6440000  -3.1280000 -15.6150000   9.7850000
  -2.3990000 -16.8140000   8.1540000  -2.6900000 -17.8880000   7.6340000
  -1.9040000 -15.7990000   7.4620000  -1.7150000 -14.9120000   7.9060000
  -1.5980000 -15.9410000   6.0520000  -2.3860000 -16.5270000   5.5800000
  -1.5410000 -14.5760000   5.3830000  -1.2600000 -14.7130000   4.3390000
  -2.9010000 -13.8570000   5.4580000  -3.1830000 -13.7190000   6.5020000
  -2.8260000 -12.8850000   4.9710000  -3.6580000 -14.4580000   4.9540000
  -0.5810000 -13.7850000   6.0800000  -0.5270000 -12.9160000   5.6750000
  -0.2270000 -16.6100000   5.8970000   0.5770000 -16.6620000   6.8520000
   0.0460000 -17.1160000   4.7000000  -0.6730000 -17.2640000   4.0060000
   1.3750000 -17.6110000   4.4260000   1.7020000 -18.2410000   5.2530000
   1.4130000 -18.4380000   3.1360000   0.7930000 -18.0060000   2.3500000
   2.4450000 -18.4990000   2.7910000   0.9340000 -19.8690000   3.3320000
   1.7050000 -20.7750000   4.0360000   2.6710000 -20.4610000   4.4310000
   1.2570000 -22.0830000   4.2430000   1.8830000 -22.7870000   4.7910000
   0.0200000 -22.4870000   3.7540000  -0.3320000 -23.5060000   3.9160000
  -0.7630000 -21.5900000   3.0610000  -1.7360000 -21.8970000   2.6780000
  -0.3090000 -20.2870000   2.8490000  -0.9270000 -19.5770000   2.2990000
   2.3750000 -16.4610000   4.4380000   3.5470000 -16.6640000   4.7200000
   1.9040000 -15.2480000   4.1520000   0.9440000 -15.1390000   3.8580000
   2.7480000 -14.0570000   4.2180000   3.6260000 -14.1890000   3.5860000
   1.9690000 -12.8220000   3.7260000   1.4790000 -13.1100000   2.7960000
   1.2140000 -12.6060000   4.4820000   2.8200000 -11.5810000   3.4890000
   3.3810000 -11.3860000   4.4030000   3.5140000 -11.7890000   2.6740000
   1.9730000 -10.3520000   3.1370000   0.7350000 -10.3930000   3.3440000
   2.5460000  -9.3550000   2.6470000   3.2360000 -13.8230000   5.6530000
   4.4350000 -13.6030000   5.8820000   2.3190000 -13.8620000   6.6200000
   1.3340000 -13.9060000   6.3990000   2.7130000 -13.7820000   8.0320000
   3.2690000 -12.8600000   8.2040000   1.4770000 -13.7900000   8.9520000
   0.9120000 -12.8890000   8.7120000   0.8710000 -14.6690000   8.7310000
   1.8400000 -13.7830000  10.4340000   2.0970000 -12.5880000  11.1050000
   2.0150000 -11.6510000  10.5540000   2.4540000 -12.5750000  12.4570000
   2.6460000 -11.6280000  12.9610000   2.5630000 -13.7610000  13.1530000
   2.9150000 -13.7320000  14.4970000   3.0560000 -12.8420000  14.8290000
   2.3210000 -14.9680000  12.5080000   2.4080000 -15.9100000  13.0500000
   1.9630000 -14.9700000  11.1520000   1.7750000 -15.9130000  10.6390000
   3.6640000 -14.9400000   8.4310000   4.6950000 -14.7330000   9.0930000
   3.3100000 -16.1560000   8.0320000   2.4630000 -16.3020000   7.5010000
   4.1100000 -17.3330000   8.4070000   4.1660000 -17.4020000   9.4930000
   3.4880000 -18.6230000   7.8660000   3.3440000 -18.4050000   6.8080000
   4.1760000 -19.4620000   7.9740000   2.1420000 -18.9830000   8.5000000
   1.5390000 -18.0760000   8.5430000   1.3810000 -20.0690000   7.7070000
   1.9830000 -20.9770000   7.6640000   0.4340000 -20.2850000   8.2020000
   1.1880000 -19.7130000   6.6950000   2.3580000 -19.3910000   9.9470000
   2.8080000 -18.5630000  10.4950000   1.4000000 -19.6480000  10.4000000
   3.0210000 -20.2550000   9.9860000   5.5270000 -17.1590000   7.8950000
   6.4590000 -17.2570000   8.6660000   5.6860000 -16.8940000   6.6000000
   4.8880000 -16.8920000   5.9810000   7.0020000 -16.7120000   6.0250000
   7.5710000 -17.6340000   6.1430000   6.9380000 -16.3640000   4.5330000
   6.5640000 -17.2300000   3.9860000   6.2540000 -15.5260000   4.3970000
   8.3350000 -15.9810000   3.9960000   8.7630000 -15.2350000   4.6650000
   8.9540000 -16.8780000   4.0090000   8.3260000 -15.4180000   2.5830000
   9.3700000 -14.9780000   2.0590000   7.1620000 -15.4300000   1.9560000
   7.0950000 -15.0690000   1.0150000   6.3450000 -15.8000000   2.4210000
   7.8410000 -15.6650000   6.7770000   8.9980000 -15.9250000   7.1320000
   7.2740000 -14.4860000   7.0150000   6.3320000 -14.2830000   6.7120000
   8.0410000 -13.4190000   7.6600000   8.9820000 -13.3100000   7.1210000
   7.2860000 -12.0820000   7.6050000   6.3450000 -12.1730000   8.1480000
   7.8950000 -11.3010000   8.0620000   7.0820000 -11.8220000   6.5660000
   8.3820000 -13.7830000   9.1050000   9.4790000 -13.4740000   9.5990000
   7.4320000 -14.4210000   9.7850000   6.5340000 -14.5860000   9.3530000
   7.6180000 -14.8300000  11.1740000   7.8950000 -13.9700000  11.7830000
   6.3100000 -15.4230000  11.7270000   5.5560000 -14.6390000  11.7940000
   5.9510000 -16.2170000  11.0730000   6.4330000 -16.0210000  13.1040000
   6.8350000 -17.3470000  13.2750000   7.0580000 -17.9480000  12.3940000
   6.9530000 -17.9070000  14.5530000   7.2680000 -18.9440000  14.6720000
   6.6650000 -17.1310000  15.6790000   6.7530000 -17.5530000  16.6800000
   6.2640000 -15.8110000  15.5140000   6.0460000 -15.1970000  16.3880000
   6.1400000 -15.2700000  14.2300000   5.8080000 -14.2400000  14.1020000
   8.7850000 -15.8290000  11.2770000   9.6410000 -15.7120000  12.1650000
   8.8210000 -16.7910000  10.3570000   8.1060000 -16.8410000   9.6450000
   9.8210000 -17.8580000  10.4110000   9.9820000 -18.1500000  11.4490000
   9.3650000 -19.0980000   9.6150000   9.1170000 -18.6500000   8.6530000
  10.2320000 -19.7480000   9.5000000   8.1690000 -19.9240000  10.1190000
   7.3920000 -19.2450000  10.4690000   7.6130000 -20.8000000   8.9990000
   8.3900000 -21.4800000   8.6490000   6.7680000 -21.3770000   9.3740000
   7.2840000 -20.1690000   8.1730000   8.5030000 -20.7740000  11.3420000
   8.8250000 -20.1270000  12.1580000   7.6190000 -21.3330000  11.6490000
   9.3040000 -21.4700000  11.0930000  11.1850000 -17.3530000   9.9340000
  12.2090000 -17.7320000  10.4920000  11.2080000 -16.4780000   8.9310000
  10.3820000 -16.2820000   8.3840000  12.4800000 -15.8680000   8.5150000
  13.2090000 -16.6510000   8.3030000  12.2910000 -15.0110000   7.2420000
  11.4760000 -14.3190000   7.4540000  13.2160000 -14.4510000   7.1070000
  11.9730000 -15.8020000   5.9490000  12.8410000 -16.4210000   5.7190000
  11.1140000 -16.4420000   6.1490000  11.6630000 -14.8880000   4.7500000
  11.6630000 -13.6460000   4.9230000  11.4150000 -15.4080000   3.6360000
  13.1720000 -15.0470000   9.6360000  14.4090000 -15.0470000   9.7440000
  12.3810000 -14.3540000  10.4560000  11.3790000 -14.4180000  10.3490000
  12.9140000 -13.4810000  11.5060000  13.9250000 -13.1670000  11.2470000
  12.0380000 -12.2320000  11.6630000  11.0020000 -12.5600000  11.7500000
  12.3370000 -11.7280000  12.5820000  12.1670000 -11.2800000  10.5040000
  12.8440000 -11.6260000   9.4990000  11.5860000 -10.1770000  10.6010000
  12.9920000 -14.1670000  12.8570000  13.3920000 -13.5510000  13.8430000
  12.6130000 -15.4420000  12.8940000  12.4540000 -15.9380000  12.0290000
  12.3470000 -16.1340000  14.1430000  11.4460000 -15.7370000  14.6110000
  12.1380000 -17.6230000  13.8660000  11.4140000 -17.7130000  13.0560000
  13.0990000 -18.0200000  13.5390000  11.6510000 -18.4060000  15.0660000
  10.3320000 -18.2990000  15.4990000   9.6570000 -17.6300000  14.9650000
   9.8700000 -19.0270000  16.5920000   8.8280000 -18.9500000  16.9030000
  10.7300000 -19.8790000  17.2610000  10.2600000 -20.5770000  18.3570000
   9.3390000 -20.3910000  18.5530000  12.0530000 -19.9980000  16.8570000
  12.7370000 -20.6590000  17.3900000  12.5050000 -19.2640000  15.7600000
  13.5410000 -19.3560000  15.4320000  13.4090000 -15.9800000  15.2230000
  13.0880000 -15.7370000  16.3850000  14.6720000 -16.1440000  14.8520000
  14.9230000 -16.3170000  13.8890000  15.7070000 -16.2540000  15.8630000
  15.2810000 -16.6620000  16.7800000  16.8360000 -17.1820000  15.3910000
  17.2020000 -16.8920000  14.4060000  17.6570000 -17.1480000  16.1070000
  16.4130000 -18.6300000  15.2860000  16.3760000 -19.4420000  16.4150000
  16.6520000 -19.0210000  17.3820000  15.9940000 -20.7720000  16.3220000
  15.9940000 -21.3930000  17.2180000  15.6140000 -21.3140000  15.1010000
  15.3050000 -22.3570000  15.0320000  15.6300000 -20.5210000  13.9670000
  15.3360000 -20.9340000  13.0020000  16.0300000 -19.1700000  14.0640000
  16.0400000 -18.5400000  13.1750000  16.2130000 -14.9020000  16.3450000
  16.9470000 -14.8400000  17.3470000  15.8030000 -13.8290000  15.6660000
  15.3770000 -13.9350000  14.7570000  16.0040000 -12.4520000  16.1950000
  16.7880000 -12.4610000  16.9520000  16.3990000 -11.4610000  15.0930000
  15.6060000 -11.4430000  14.3460000  16.6080000 -10.0430000  15.6530000
  17.4020000 -10.0600000  16.4000000  16.8870000  -9.3690000  14.8430000
  15.6840000  -9.6940000  16.1140000  17.6070000 -11.8980000  14.4700000
  17.8540000 -11.2780000  13.7800000  14.7650000 -11.8840000  16.9130000
  14.8680000 -11.3920000  18.0390000  13.5990000 -11.9620000  16.2760000
  13.5450000 -12.3980000  15.3670000  12.3930000 -11.3160000  16.8120000
  12.6650000 -10.4130000  17.3590000  11.4510000 -10.9290000  15.6650000
  11.2230000 -11.8220000  15.0830000  10.5310000 -10.5270000  16.0890000
  12.0490000  -9.9540000  14.8210000  11.4420000  -9.7280000  14.1120000
  11.6060000 -12.0910000  17.8780000  10.8950000 -11.4860000  18.6820000
  11.7120000 -13.4190000  17.8820000  12.3350000 -13.8970000  17.2470000
  10.8580000 -14.2230000  18.7470000  10.2470000 -13.5660000  19.3660000
   9.9190000 -15.1450000  17.9250000  10.5090000 -15.9550000  17.4980000
   8.8230000 -15.7260000  18.8040000   8.2320000 -14.9160000  19.2320000
   8.1780000 -16.3690000  18.2050000   9.2720000 -16.3100000  19.6070000
   9.3210000 -14.3860000  16.8710000   8.7390000 -14.9520000  16.3590000
  11.6390000 -15.0540000  19.7460000  11.2950000 -15.0880000  20.9210000
  12.7000000 -15.7080000  19.2710000  12.9100000 -15.6420000  18.2850000
  13.5620000 -16.5450000  20.1100000  13.2680000 -16.4440000  21.1550000
  13.4430000 -18.0250000  19.7070000  13.6610000 -18.0920000  18.6410000
  14.1970000 -18.5780000  20.2670000  12.0790000 -18.6160000  19.9800000
  11.3420000 -18.1210000  19.3480000  12.1220000 -19.6750000  19.7250000
  11.6830000 -18.4630000  21.4300000  12.5890000 -18.3920000  22.2780000
  10.4710000 -18.3950000  21.7200000  15.0270000 -16.1210000  20.0070000
  15.8650000 -16.8830000  19.5190000  15.3380000 -14.9000000  20.4610000
  14.4180000 -13.9450000  21.1120000  13.8270000 -14.4630000  21.8670000
  13.7520000 -13.5110000  20.3660000  15.3540000 -12.9260000  21.7080000
  15.6590000 -13.2300000  22.7090000  14.8710000 -11.9500000  21.7570000
  16.5150000 -12.9000000  20.7680000  17.3910000 -12.5510000  21.3150000
  16.3760000 -12.2880000  19.8760000  16.7000000 -14.3690000  20.3710000
  17.0610000 -14.5280000  19.3550000  17.6470000 -15.0470000  21.3590000
  18.8600000 -14.9820000  21.1760000  17.0960000 -15.6810000  22.3910000
  16.0950000 -15.6630000  22.5270000  17.9190000 -16.3510000  23.3940000
  18.9550000 -16.0260000  23.2970000  17.4290000 -16.0130000  24.8110000
  16.3970000 -16.3590000  24.8780000  18.0490000 -16.5840000  25.5030000
  17.4940000 -14.5200000  25.1770000  16.7730000 -13.9840000  24.5600000
  17.2280000 -14.4060000  26.2280000  18.8750000 -13.9100000  24.9550000
  19.8040000 -14.1440000  25.7290000  19.0090000 -13.1190000  23.8930000
  19.9010000 -12.6880000  23.6970000  18.2180000 -12.9530000  23.2880000
  17.9640000 -17.8730000  23.2090000  18.2980000 -18.6010000  24.1350000
  17.6300000 -18.3490000  22.0150000  17.3230000 -17.7160000  21.2900000
  17.6440000 -19.7810000  21.7240000  16.9690000 -20.3070000  22.4000000
  17.1830000 -20.0260000  20.2830000  16.0950000 -19.9610000  20.2870000
  17.5920000 -19.2340000  19.6560000  17.6050000 -21.3680000  19.7360000
  16.8280000 -22.5030000  19.9550000  15.8990000 -22.4060000  20.5170000
  17.2150000 -23.7290000  19.4760000  16.6020000 -24.6130000  19.6530000
  18.3970000 -23.8370000  18.7590000  18.7970000 -25.0520000  18.2680000
  18.1850000 -25.7610000  18.4780000  19.1880000 -22.7280000  18.5300000
  20.1190000 -22.8150000  17.9700000  18.7890000 -21.5020000  19.0180000
  19.4040000 -20.6190000  18.8430000  19.0250000 -20.4160000  21.9300000
  20.0340000 -19.8970000  21.4510000  19.0620000 -21.5350000  22.6450000
  18.2450000 -21.8210000  23.1660000  20.2630000 -22.3720000  22.7210000
  21.0430000 -21.9480000  22.0890000  20.7890000 -22.4540000  24.1640000
  19.9980000 -22.9230000  24.7490000  21.6570000 -23.1130000  24.1340000
  21.1830000 -21.1190000  24.8130000  20.3900000 -20.3960000  24.6200000
  21.2740000 -21.2800000  25.8870000  22.4980000 -20.5500000  24.2920000
  22.8690000 -20.7600000  23.1360000  23.2080000 -19.8190000  25.1510000
  24.0880000 -19.4170000  24.8600000  22.8630000 -19.6710000  26.0890000
  19.9240000 -23.7860000  22.2160000  18.8520000 -24.3100000  22.5140000
  20.8290000 -24.4110000  21.4400000  22.1110000 -23.9260000  20.9010000
  22.6360000 -23.3530000  21.6650000  21.9270000 -23.2910000  20.0340000
  22.8280000 -25.1990000  20.5380000  23.4000000 -25.5610000  21.3920000
  23.5010000 -25.0210000  19.6990000  21.7390000 -26.1660000  20.1570000
  22.0950000 -27.1640000  20.4130000  21.4450000 -26.1440000  19.1080000
  20.5440000 -25.7960000  21.0430000  19.5830000 -25.8250000  20.5290000
  20.4950000 -26.7070000  22.2610000  21.1920000 -26.4320000  23.2370000
  19.6650000 -27.7490000  22.2030000  19.0480000 -27.8330000  21.4080000
  19.6060000 -28.7730000  23.2330000  20.2990000 -28.5230000  24.0370000
  18.5930000 -28.8320000  23.6320000  19.9880000 -30.1230000  22.6530000
  20.7970000 -30.1970000  21.7190000  19.4020000 -31.1900000  23.1890000
  18.7540000 -31.0820000  23.9570000  19.7720000 -32.5400000  22.7820000
  20.8580000 -32.6260000  22.7400000  19.2370000 -33.5740000  23.7790000
  18.2530000 -33.2390000  24.1060000  19.1400000 -34.5220000  23.2510000
  20.1380000 -33.7590000  24.9910000  20.1270000 -32.8390000  25.5760000
  19.7300000 -34.5740000  25.5890000  21.5720000 -34.0900000  24.5930000
  21.8780000 -35.2900000  24.3820000  22.3890000 -33.1480000  24.4830000
  19.3640000 -32.8990000  21.3530000  20.1220000 -33.5720000  20.6520000
  18.1810000 -32.4490000  20.9340000  17.6110000 -31.9090000  21.5700000
  17.6250000 -32.7900000  19.6220000  18.3790000 -33.2880000  19.0120000
  16.4370000 -33.7320000  19.7950000  15.6970000 -33.2480000  20.4330000
  15.9980000 -33.9310000  18.8170000  16.8320000 -35.0570000  20.4290000
  17.4700000 -35.8980000  19.7920000  16.4520000 -35.2500000  21.6860000
  16.6880000 -36.1130000  22.1550000  15.9280000 -34.5330000  22.1680000
  17.2150000 -31.5940000  18.7350000  17.2940000 -31.6750000  17.5060000
  16.7890000 -30.4910000  19.3490000  16.7250000 -30.4690000  20.3570000
  16.3470000 -29.3010000  18.5930000  16.5060000 -29.4630000  17.5270000
  14.8610000 -29.0310000  18.8300000  14.7770000 -29.0380000  19.9170000
  14.6800000 -28.0220000  18.4590000  13.8270000 -29.9870000  18.2320000
  14.1020000 -31.0150000  18.4690000  12.4530000 -29.6810000  18.8170000
  12.1770000 -28.6540000  18.5800000  11.7160000 -30.3620000  18.3910000
  12.4820000 -29.8080000  19.8990000  13.8040000 -29.8540000  16.7330000
  14.7880000 -30.0960000  16.3310000  13.0650000 -30.5390000  16.3180000
  13.5430000 -28.8310000  16.4620000  17.1430000 -28.0400000  18.9390000
  17.5920000 -27.8710000  20.0770000  17.3500000 -27.1540000  18.0940000
