AQ4
 71453
  80.4080152  35.3643788  33.2424269  80.0540152  36.6063788  33.3994269
  79.6250152  37.8333788  33.5644269  78.2070152  38.0723788  33.6374269
  77.7060152  39.3273788  33.7414269  78.5690152  40.4833788  33.6524269
  79.9090152  40.3333788  33.6234269  80.6210152  38.9843788  33.7374269
  76.3280152  39.5453788  33.9234269  75.9600152  40.4643788  33.6384269
  75.4410152  38.6633788  34.5444269  74.0360152  38.8153788  34.3554269
  73.4390152  39.7943788  33.5224269  73.2170152  37.9043788  35.0474269
  72.0630152  39.8393788  33.3754269  71.2490152  38.8833788  34.0434269
  71.8200152  37.9533788  34.8884269  73.7820152  36.9463788  35.8534269
  75.0790152  36.8903788  35.9614269  75.9330152  37.7343788  35.3304269
  71.4800152  40.8273788  32.5904269  70.0730152  40.8223788  32.1934269
  69.7160152  42.2533788  31.7474269  68.3710152  42.5163788  32.1434269
  67.7800152  43.6273788  31.4884269  69.8790152  38.7843788  33.9004269
  69.0860152  37.6923788  33.3654269  69.2760152  36.5393788  34.3614269
  69.0200152  35.3593788  33.6204269  67.9890152  34.5613788  34.1784269
  77.5210152  37.2253788  33.6084269  74.0650152  40.5143788  32.9954269
  71.1860152  37.2543788  35.4344269  75.5050152  36.1163788  36.5994269
  69.9210152  40.1263788  31.3684269  69.4490152  40.5283788  33.0374269
  70.3880152  42.9673788  32.2234269  69.8050152  42.3363788  30.6644269
  66.7590152  43.7593788  31.8454269  67.7680152  43.4513788  30.4124269
  68.3580152  44.5263788  31.7034269  68.0350152  37.9763788  33.3034269
  69.4450152  37.4073788  32.3764269  70.2950152  36.5333788  34.7484269
  68.5730152  36.6303788  35.1894269  67.8430152  33.6733788  33.5634269
  67.0630152  35.1353788  34.2124269  68.2680152  34.2613788  35.1884269
  80.6780152  34.4153788  33.1224269  81.6320152  38.8663788  33.9074269
  80.4890152  41.1803788  33.5174269  78.1580152  41.4293788  33.6104269
 106.2970152  47.2733788  48.6374269 107.2640152  47.3683788  48.9114269
 106.0180152  48.0833788  48.1034269 106.1870152  46.4433788  48.0724269
 105.4650152  47.1653788  49.8254269 105.7830152  46.2923788  50.3954269
 105.6010152  48.0633788  50.4284269 103.9890152  47.0193788  49.4984269
 103.1740152  47.8693788  49.8684269 103.6560152  45.9263788  48.8094269
 104.3910152  45.2793788  48.5614269 102.2920152  45.6093788  48.3924269
 101.6100152  46.2463788  48.9544269 102.1480152  45.8743788  46.8954269
 103.1370152  45.8163788  46.4414269 101.5080152  45.1003788  46.4714269
 101.5490152  47.2233788  46.5564269 101.6390152  47.3883788  45.4824269
 102.1010152  47.9973788  47.0904269 100.0850152  47.3103788  46.9444269
  99.3600152  46.3013788  46.7984269  99.6530152  48.3853788  47.4034269
 101.9220152  44.1493788  48.7024269 102.7360152  43.2353788  48.5224269
 100.6850152  43.9333788  49.1404269 100.0550152  44.7173788  49.2364269
 100.2100152  42.5923788  49.4874269 101.0110152  42.1443788  50.0764269
  98.9140152  42.6903788  50.3064269  99.0870152  43.3073788  51.1884269
  98.1310152  43.1403788  49.6954269  98.6040152  41.6923788  50.6164269
 100.0000152  41.6503788  48.2914269  99.3620152  42.0073788  47.3034269
 100.5590152  40.4363788  48.3574269 101.4590152  39.8783788  49.3764269
 102.4910152  40.1883788  49.2104269 101.1510152  40.1653788  50.3814269
 101.2840152  38.4013788  49.1474269 102.1190152  37.8373788  49.5634269
 100.3510152  38.0433788  49.5834269 101.2560152  38.3043788  47.6764269
 100.8120152  37.3613788  47.3574269 102.2600152  38.3913788  47.2624269
 100.3860152  39.4893788  47.2514269 100.6680152  39.8963788  46.2804269
  98.9280152  39.0853788  47.1144269  98.2740152  38.8063788  48.1074269
  98.4230152  39.0913788  45.8844269  99.0220152  39.3563788  45.1154269
  97.0340152  38.7293788  45.6014269  96.3730152  39.0153788  46.4194269
  96.5520152  39.4793788  44.3514269  97.2140152  39.2313788  43.5214269
  96.6030152  40.5503788  44.5484269  95.1320152  39.1283788  43.9574269
  94.4830152  38.2763788  44.5794269  94.6510152  39.7583788  42.8784269
  93.7230152  39.5453788  42.5414269  95.2160152  40.4463788  42.4024269
  96.9690152  37.2123788  45.4284269  97.2490152  36.6723788  44.3594269
  96.5790152  36.5283788  46.4924269  96.3100152  37.0243788  47.3304269
  96.5310152  35.0793788  46.4744269  97.2470152  34.7763788  45.7104269
  96.9160152  34.5443788  47.8324269  96.2050152  34.9133788  48.5714269
  96.8800152  33.4553788  47.8054269  98.3090152  34.9783788  48.2334269
  98.3230152  36.0633788  48.3394269  99.0090152  34.6803788  47.4534269
  98.7360152  34.3573788  49.5324269  98.9470152  33.1423788  49.6124269
  98.8610152  35.1813788  50.5674269  99.1400152  34.8213788  51.4694269
  98.6770152  36.1683788  50.4524269  95.2260152  34.4803788  46.0374269
  94.9250152  33.3223788  46.3564269  94.4610152  35.2533788  45.2794269
  94.7650152  36.1853788  45.0364269  93.1930152  34.7573788  44.8024269
  92.5800152  34.4623788  45.6544269  92.4800152  35.8453788  44.0304269
  92.3180152  36.7053788  44.6804269  93.0890152  36.1443788  43.1774269
  91.5190152  35.4703788  43.6784269  93.4110152  33.5353788  43.9064269
  94.4170152  33.4323788  43.1974269  92.4370152  32.6343788  43.9354269
  91.6510152  32.8023788  44.5464269  92.4380152  31.4223788  43.1394269
  93.4790152  31.2193788  42.8864269  91.8260152  30.2763788  43.9414269
  91.1550152  30.7073788  44.6844269  91.2550152  29.6533788  43.2534269
  92.8220152  29.3793788  44.6724269  93.3590152  28.7623788  43.9524269
  93.8380152  30.2223788  45.4014269  94.3700152  30.8503788  44.6864269
  93.3300152  30.8533788  46.1314269  94.5480152  29.5733788  45.9134269
  92.0760152  28.4583788  45.6234269  91.5310152  29.0553788  46.3544269
  91.3740152  27.8453788  45.0594269  92.7880152  27.8143788  46.1394269
  91.6500152  31.5653788  41.8444269  90.4700152  31.8813788  41.8844269
  92.2970152  31.3413788  40.6974269  93.2840152  31.1283788  40.7144269
  91.5920152  31.4003788  39.4144269  90.7080152  32.0353788  39.4684269
  92.4760152  31.9963788  38.3234269  92.7010152  33.0263788  38.5994269
  93.4000152  31.4193788  38.2884269  91.8740152  32.0073788  36.9124269
  91.4900152  31.0133788  36.6834269  90.6980152  33.0023788  36.8174269
  89.9260152  32.7213788  37.5334269  91.0540152  34.0083788  37.0424269
  90.2840152  32.9803788  35.8094269  92.9660152  32.3943788  35.9124269
  93.3420152  33.3893788  36.1514269  93.7820152  31.6743788  35.9694269
  92.5520152  32.3953788  34.9044269  91.2500152  29.9413788  39.0904269
  92.1280152  29.0833788  39.0504269  89.9690152  29.6563788  38.9114269
  89.2860152  30.3983788  38.9664269  89.5250152  28.3033788  38.6384269
  90.3210152  27.6123788  38.9184269  88.2740152  28.0183788  39.4634269
  88.4660152  28.3443788  40.4854269  87.4560152  28.6033788  39.0434269
  87.8350152  26.5763788  39.5124269  88.2710152  26.0473788  38.6654269
  86.7480152  26.5373788  39.4444269  88.2730152  25.8873788  40.8014269
  87.9220152  26.4713788  41.6524269  89.3610152  25.8323788  40.8224269
  87.7260152  24.5323788  40.8954269  88.3280152  23.7633788  40.6374269
  86.4890152  24.2433788  41.2974269  85.6540152  25.2113788  41.6614269
  85.9670152  26.1713788  41.6684269  84.7070152  24.9863788  41.9314269
  86.0690152  22.9853788  41.2914269  86.6870152  22.2483788  40.9824269
  85.1320152  22.7643788  41.5954269  89.2510152  28.0823788  37.1514269
  88.5570152  28.8773788  36.5024269  89.8540152  27.0273788  36.6124269
  90.4530152  26.4603788  37.1954269  89.6840152  26.6583788  35.2174269
  89.3860152  27.5193788  34.6194269  91.0000152  26.1303788  34.5954269
  91.2310152  25.1713788  35.0604269  90.8360152  25.9613788  33.0894269
  90.0230152  25.2633788  32.8884269  90.6060152  26.9263788  32.6384269
  91.7620152  25.5733788  32.6644269  92.1420152  27.1163788  34.8434269
  92.1680152  27.3433788  35.9094269  93.0750152  26.6343788  34.5514269
  92.0290152  28.4223788  34.0864269  92.0290152  28.2223788  33.0144269
  91.1010152  28.9233788  34.3624269  92.8760152  29.0613788  34.3364269
  88.6460152  25.5523788  35.2304269  88.8390152  24.5213788  35.8674269
  87.5310152  25.7963788  34.5534269  87.4500152  26.6713788  34.0564269
  86.4160152  24.8563788  34.4954269  86.5940152  24.0863788  35.2454269
  85.1030152  25.6013788  34.7694269  85.1720152  26.5283788  34.1994269
  84.3200152  24.9723788  34.3464269  84.5900152  26.0133788  36.1564269
  84.0780152  25.1503788  36.5834269  85.6680152  26.3623788  37.1094269
  86.3460152  25.5163788  37.2164269  86.2190152  27.2243788  36.7344269
  85.2320152  26.6033788  38.0784269  83.6480152  27.1893788  35.9924269
  84.1900152  28.0323788  35.5644269  82.8290152  26.9093788  35.3294269
  83.2470152  27.4723788  36.9654269  86.3100152  24.2053788  33.1324269
  86.3790152  24.8893788  32.1054269  86.0840152  22.8943788  33.1254269
  86.0080152  22.4033788  34.0044269  85.9430152  22.1443788  31.8734269
  86.7690152  22.4083788  31.2124269  85.9880152  20.6373788  32.1474269
  85.3580152  20.4283788  33.0124269  85.5910152  20.1193788  31.2744269
  87.3800152  20.0973788  32.4294269  87.9500152  20.0923788  31.5004269
  87.8700152  20.7493788  33.1524269  87.3430152  18.6763788  32.9924269
  88.2260152  18.1383788  32.6474269  86.4470152  18.1763788  32.6254269
  87.3240152  18.6613788  34.5294269  87.1460152  17.6383788  34.8604269
  86.5080152  19.2993788  34.8684269  88.6030152  19.1493788  35.1614269
  89.3710152  18.5683788  34.8574269  88.7730152  20.1053788  34.8824269
  88.5210152  19.1013788  36.1674269  84.6220152  22.5013788  31.2044269
  83.6060152  22.6053788  31.8784269  84.6470152  22.7093788  29.8914269
  85.5260152  22.6293788  29.3994269  83.4390152  23.0503788  29.1364269
  83.0260152  23.9433788  29.6054269  83.7570152  23.3583788  27.6664269
  84.5060152  24.1493788  27.6304269  84.1570152  22.4583788  27.2004269
  82.5300152  23.8113788  26.8804269  82.2470152  24.8043788  27.2304269
  81.7190152  23.1113788  27.0784269  82.7470152  23.8783788  25.3774269
  83.3210152  22.9263788  24.8034269  82.3060152  24.8773788  24.7624269
  82.4080152  21.9303788  29.1964269  81.2350152  22.1593788  28.9174269
  82.8540152  20.7223788  29.5364269  83.8380152  20.5983788  29.7274269
  81.9600152  19.5703788  29.6414269  81.3040152  19.6063788  28.7714269
  82.7520152  18.2403788  29.6504269  82.0490152  17.4243788  29.8184269
  83.4520152  18.0253788  28.3204269  82.7130152  18.0073788  27.5194269
  84.1570152  18.8383788  28.1454269  83.9890152  17.0763788  28.3414269
  83.7290152  18.2623788  30.6984269  84.1890152  17.4193788  30.6844269
  81.1420152  19.6293788  30.9234269  80.1100152  18.9663788  31.0414269
  81.6200152  20.4093788  31.8904269  82.4740152  20.9233788  31.7284269
  80.9500152  20.5433788  33.1694269  80.5340152  19.5593788  33.3864269
  81.9500152  20.9473788  34.2454269  82.5710152  21.7503788  33.8474269
  81.3920152  21.3133788  35.1074269  82.8660152  19.8313788  34.7154269
  83.5130152  19.5393788  33.8884269  82.2540152  18.9803788  35.0164269
  83.7410152  20.2493788  35.8994269  84.0500152  21.4653788  36.0284269
  84.1120152  19.3553788  36.7024269  79.7500152  21.4993788  33.1694269
  79.0090152  21.5823788  34.1514269  79.5550152  22.2403788  32.0904269
  80.1860152  22.1813788  31.3044269  78.4190152  23.1363788  32.0604269
  77.7570152  22.7593788  32.8404269  78.7970152  24.5803788  32.4374269
  77.9050152  25.1993788  32.3444269  79.1340152  24.5823788  33.4744269
  79.8750152  25.1883788  31.5964269  79.5820152  25.7263788  30.3464269
  78.5780152  25.6483788  29.9564269  80.5690152  26.3673788  29.5864269
  80.3260152  26.7823788  28.6194269  81.8650152  26.4663788  30.0844269
  82.6330152  26.9583788  29.5064269  82.1690152  25.9223788  31.3434269
  83.1720152  25.9953788  31.7364269  81.1730152  25.2883788  32.0854269
  81.4130152  24.8693788  33.0514269  77.5970152  23.0723788  30.7994269
  78.1190152  23.0073788  29.6984269  76.2860152  23.0573788  30.9934269
  75.9350152  23.1043788  31.9394269  75.3340152  22.9753788  29.8994269
  75.8770152  22.6663788  29.0064269  74.2490152  21.9423788  30.2564269
  73.7690152  22.2533788  31.1844269  73.5120152  21.9263788  29.4534269
  74.7930152  20.5153788  30.4454269  75.0520152  20.1093788  29.4674269
  75.6870152  20.5633788  31.0674269  73.7810152  19.5743788  31.1134269
  72.8600152  19.5763788  30.5304269  73.5740152  19.9363788  32.1204269
  74.3100152  18.1343788  31.2024269  74.3430152  17.7143788  30.1974269
  73.6250152  17.5513788  31.8174269  75.6830152  18.0463788  31.8014269
  76.3300152  18.5833788  31.2414269  75.6650152  18.4163788  32.7414269
  75.9790152  17.0813788  31.8254269  74.6910152  24.3223788  29.5764269
  73.8500152  24.7903788  30.3454269  75.1070152  24.9593788  28.4744269
  75.8480152  24.5563788  27.9184269  74.5050152  26.2363788  28.0584269
  74.6640152  26.9853788  28.8344269  75.1240152  26.7773788  26.7704269
  75.0500152  25.9993788  26.0104269  74.5440152  27.6463788  26.4584269
  76.5780152  27.1973788  26.8694269  76.6880152  27.9223788  27.6754269
  77.1910152  26.3213788  27.0824269  77.0400152  27.8283788  25.5574269
  76.4840152  28.7523788  25.3984269  76.8320152  27.1343788  24.7434269
  78.5270152  28.1483788  25.5574269  79.0860152  27.2253788  25.7104269
  78.7390152  28.8403788  26.3724269  78.9620152  28.7703788  24.2684269
  78.7700152  28.1353788  23.5064269  78.4570152  29.6333788  24.1234269
  79.9530152  28.9623788  24.3044269  73.0350152  25.9373788  27.7914269
  72.6770152  24.7913788  27.5074269  72.1850152  26.9553788  27.8524269
  72.5250152  27.8883788  28.0394269  70.7610152  26.7243788  27.6494269
  70.7060152  25.8633788  26.9834269  70.0530152  26.3723788  29.0084269
  70.4600152  26.9953788  29.8044269  68.5520152  26.6923788  28.9504269
  68.4140152  27.7513788  28.7324269  68.0830152  26.0963788  28.1674269
  68.0930152  26.4563788  29.9104269  70.3420152  24.8973788  29.3744269
  69.9980152  24.2773788  28.5464269  71.4210152  24.7893788  29.4844269
  69.6920152  24.3693788  30.6484269  70.0460152  24.9463788  31.5024269
  68.6090152  24.4633788  30.5694269  69.9570152  23.3203788  30.7834269
  70.0200152  27.8203788  26.8894269  69.0020152  27.5503788  26.2514269
  70.5350152  29.0443788  26.9344269  71.3770152  29.2113788  27.4674269
  69.9020152  30.1503788  26.2254269  69.8510152  29.8503788  25.1784269
  68.4830152  30.4053788  26.7514269  67.9450152  29.4573788  26.7634269
  68.5570152  30.7943788  27.7674269  67.6840152  31.4053788  25.9064269
  68.1520152  32.3863788  25.9944269  67.7120152  31.0813788  24.8664269
  66.2200152  31.5223788  26.3424269  65.7790152  30.5253788  26.3654269
  65.6860152  32.1383788  25.6194269  66.0820152  32.1813788  27.7194269
  66.6660152  33.1073788  27.7234269  66.5010152  31.5143788  28.4774269
  64.6630152  32.4863788  28.0234269  64.3080152  33.1583788  27.3544269
  64.0990152  31.6473788  27.9674269  64.5700152  32.8853788  28.9484269
  70.7110152  31.4313788  26.3044269  71.4010152  31.6643788  27.2964269
  70.7200152  32.1753788  25.2074269  70.2170152  31.8573788  24.3904269
  71.4250152  33.4643788  25.1584269  72.3870152  33.3573788  25.6594269
  71.7280152  33.8553788  23.6954269  72.4370152  33.1363788  23.2634269
  70.4500152  33.8163788  22.8594269  70.0250152  32.8133788  22.8904269
  69.7330152  34.5273788  23.2704269  70.6760152  34.0833788  21.8274269
  72.3800152  35.2353788  23.6004269  71.6710152  36.0183788  23.8684269
  73.2510152  35.2833788  24.2544269  72.7170152  35.3873788  22.5774269
  70.5930152  34.5043788  25.9404269  69.3790152  34.6143788  25.7664269
  71.2500152  35.2273788  26.8534269  72.2590152  35.1163788  26.9224269
  70.6530152  36.3183788  27.6244269  69.5990152  36.1073788  27.8024269
  71.3790152  36.4493788  28.9754269  72.4490152  36.5393788  28.7904269
  71.0550152  37.3713788  29.4604269  71.1390152  35.2763788  29.9434269
  71.4040152  34.3373788  29.4594269  72.0240152  35.4603788  31.1774269
  73.0700152  35.4513788  30.8834269  71.7980152  36.4093788  31.6594269
  71.8700152  34.6533788  31.8904269  69.6780152  35.2213788  30.4034269
  69.3800152  36.1913788  30.7974269  69.0340152  34.9463788  29.5694269
  69.5620152  34.4753788  31.1864269  70.7130152  37.6383788  26.8474269
  69.7510152  38.4033788  26.8944269  71.8060152  37.8713788  26.1024269
  72.5690152  37.2053788  26.1464269  71.9550152  39.0033788  25.1854269
  71.0690152  39.0593788  24.5514269  72.0230152  39.9293788  25.7564269
  73.2020152  38.8963788  24.3004269  74.2150152  38.3363788  24.7234269
  73.1270152  39.4663788  23.0864269  72.2640152  39.9263788  22.8304269
  74.2140152  39.4733788  22.0874269  75.0860152  39.0053788  22.5304269
  73.8220152  38.7053788  20.8144269  74.6670152  38.7063788  20.1254269
  72.9770152  39.2163788  20.3534269  73.4520152  37.3603788  21.0814269
  72.7000152  37.3793788  21.6774269  74.6600152  40.8853788  21.7054269
  74.5020152  41.2983788  20.5564269  75.1480152  41.6503788  22.6864269
  75.2980152  41.2333788  23.5934269  75.5340152  43.0463788  22.4884269
  74.7230152  43.5653788  21.9764269  75.6640152  43.5173788  23.4604269
  76.8170152  43.2473788  21.6704269  77.4280152  42.3033788  21.1694269
  77.2330152  44.5103788  21.5854269  76.6730152  45.2343788  22.0134269
  78.4670152  44.8933788  20.8984269  78.5940152  44.2583788  20.0224269
  78.3830152  46.3543788  20.4324269  77.5330152  46.4733788  19.7604269
  78.2550152  47.0053788  21.2974269  79.3010152  46.6223788  19.9084269
  79.6700152  44.6923788  21.8224269  80.3970152  45.6363788  22.1514269
  79.8580152  43.4443788  22.2384269  79.2170152  42.7313788  21.9214269
  80.9450152  43.0523788  23.1314269  81.8690152  43.5363788  22.8134269
  80.6380152  43.4883788  24.5724269  81.4590152  43.1583788  25.2104269
  80.6410152  44.5773788  24.6094269  79.3400152  42.9673788  25.1664269
  79.2830152  41.6703788  25.7154269  80.1590152  41.0363788  25.7064269
  78.0860152  41.1933788  26.2754269  78.0490152  40.1963788  26.6874269
  76.9470152  42.0193788  26.3114269  76.0360152  41.6673788  26.7714269
  77.0050152  43.3183788  25.7774269  76.1360152  43.9593788  25.8294269
  78.1970152  43.7903788  25.1994269  78.2440152  44.7943788  24.8014269
  81.0970152  41.5353788  23.0774269  82.1240152  40.9863788  23.4714269
  80.0530152  40.8733788  22.5904269  79.2430152  41.3933788  22.2844269
  80.0410152  39.4263788  22.4854269  80.2620152  39.1273788  21.4604269
  80.7860152  39.0003788  23.1564269  78.6590152  38.9423788  22.8764269
  77.6550152  39.5183788  22.4594269  78.5970152  37.9153788  23.7144269
  79.4520152  37.4983788  24.0524269  77.3300152  37.3493788  24.1644269
  76.5690152  38.1243788  24.0934269  76.8680152  36.1803788  23.2764269
  75.9160152  35.8003788  23.6484269  76.7020152  36.5913788  21.8174269
  75.9610152  37.3883788  21.7464269  77.6560152  36.9473788  21.4294269
  76.3700152  35.7333788  21.2334269  77.8520152  35.1433788  23.3554269
  77.4260152  34.3663788  23.7254269  77.4080152  36.9363788  25.6254269
  78.4340152  36.4483788  26.1144269  76.2730152  37.1213788  26.2984269
  75.4860152  37.5323788  25.7974269  75.9850152  36.5093788  27.5864269
  76.9250152  36.1213788  27.9754269  75.4800152  37.5143788  28.6454269
  74.4300152  37.7353788  28.4484269  75.6050152  36.9053788  30.0474269
  75.0720152  35.9603788  30.0974269  76.6540152  36.7303788  30.2884269
  75.1780152  37.5863788  30.7834269  76.2450152  38.8443788  28.6344269
  77.3130152  38.6633788  28.7584269  76.0670152  39.3613788  27.6934269
  75.8930152  39.4823788  29.4454269  75.0470152  35.3213788  27.3844269
  73.9770152  35.4693788  26.7894269  75.4090152  34.1703788  27.9554269
  76.3100152  34.1513788  28.4304269  74.5950152  32.9573788  28.0184269
  73.7130152  33.0893788  27.3944269  75.3390152  31.7123788  27.5114269
  76.1870152  31.5183788  28.1684269  74.6480152  30.8703788  27.5524269
  75.8600152  31.8213788  26.0964269  77.0810152  32.4383788  25.8284269
  77.6210152  32.9203788  26.6304269  77.6160152  32.4433788  24.5414269
  78.5640152  32.9253788  24.3504269  76.9260152  31.8263788  23.5034269
  77.4760152  31.7853788  22.2414269  78.3240152  32.2273788  22.1534269
  75.7030152  31.2193788  23.7434269  75.1620152  30.7483788  22.9364269
  75.1770152  31.2213788  25.0354269  74.2230152  30.7493788  25.2194269
  74.1210152  32.6923788  29.4394269  74.7020152  33.1693788  30.4194269
  73.1320152  31.8013788  29.5154269  72.8150152  31.3523788  28.6464269
  72.5370152  31.2893788  30.7404269  73.0550152  31.6983788  31.6124269
  71.0680152  31.7403788  30.7744269  71.0220152  32.6903788  31.2974269
  70.7040152  31.8933788  29.7574269  70.1130152  30.7683788  31.4624269
  70.1340152  29.8073788  30.9454269  70.4320152  30.6343788  32.4964269
  68.6780152  31.3063788  31.4054269  68.4300152  31.5873788  30.3804269
  68.5870152  32.1873788  32.0444269  67.7010152  30.2243788  31.8634269
  67.7270152  29.3963788  31.1354269  66.6880152  30.6363788  31.8624269
  68.0540152  29.7603788  33.2274269  69.0210152  29.4623788  33.2644269
  67.9220152  30.5093788  33.8964269  67.4710152  28.9883788  33.4844269
  72.7230152  29.7803788  30.7314269  72.4780152  29.1603788  29.7054269
  73.1730152  29.1903788  31.8374269  73.4400152  29.7483788  32.6494269
  73.3580152  27.7453788  31.8814269  72.5280152  27.2883788  31.3424269
  74.2930152  27.5153788  31.3714269  73.4170152  27.1133788  33.2644269
  73.0040152  27.7023788  34.2504269  73.8630152  25.8673788  33.3214269
  74.1200152  25.3963788  32.4654269  73.9920152  25.1613788  34.5854269
  73.8030152  25.8663788  35.3954269  72.9830152  24.0253788  34.7024269
  72.9080152  23.5743788  33.7124269  73.4090152  23.3033788  35.3994269
  71.5490152  24.2863788  35.1704269  71.0280152  24.8783788  34.4174269
  70.8280152  22.9343788  35.3644269  70.8180152  22.3893788  34.4204269
  71.3530152  22.3473788  36.1174269  69.8040152  23.1123788  35.6914269
  71.5490152  25.0673788  36.4794269  72.0670152  24.4913788  37.2464269
  72.0590152  26.0193788  36.3344269  70.5210152  25.2493788  36.7934269
  75.3890152  24.5833788  34.6704269  75.8640152  23.9833788  33.7184269
  76.0520152  24.7993788  35.8034269  75.6060152  25.3363788  36.5334269
  77.3970152  24.2903788  36.0294269  77.8820152  24.0413788  35.0854269
  78.2930152  25.3473788  36.6984269  78.3840152  26.1993788  36.0244269
  77.8170152  25.6663788  37.6254269  79.6680152  24.8473788  37.0184269
  80.3930152  23.9143788  36.3184269  80.0730152  23.4453788  35.3994269
  81.5850152  23.6643788  36.9564269  82.2940152  23.0153788  36.6454269
  81.6540152  24.4393788  38.0834269  82.6580152  24.5303788  39.0534269
  83.5570152  23.9353788  38.9864269  82.4580152  25.4043788  40.0934269
  83.2130152  25.4963788  40.8604269  81.2890152  26.1833788  40.1804269
  81.1660152  26.8643788  41.0094269  80.2870152  26.0923788  39.2154269
  79.3940152  26.6943788  39.2894269  80.4630152  25.2043788  38.1484269
  77.2480152  23.0613788  36.9044269  76.7280152  23.1393788  38.0154269
  77.7090152  21.9273788  36.3904269  78.1490152  21.9433788  35.4814269
  77.5990152  20.6623788  37.0994269  77.1630152  20.8723788  38.0754269
  76.6930152  19.6933788  36.3044269  77.2120152  19.3553788  35.4074269
  76.3780152  18.4523788  37.1424269  77.3070152  17.9463788  37.4054269
  75.8570152  18.7513788  38.0524269  75.7460152  17.7763788  36.5664269
  75.4140152  20.4303788  35.8734269  74.8170152  20.6143788  36.7664269
  75.7090152  21.3823788  35.4314269  74.5370152  19.7003788  34.8674269
  75.1000152  19.5313788  33.9494269  74.2260152  18.7423788  35.2844269
  73.6560152  20.3043788  34.6474269  78.9550152  20.0133788  37.3224269
  79.3840152  19.1813788  36.5294269  79.6500152  20.3873788  38.4094269
  79.2140152  21.3263788  39.4544269  78.7190152  22.1973788  39.0244269
  78.5450152  20.8443788  40.1674269  80.5120152  21.6983788  40.0924269
  81.0300152  22.4583788  39.5074269  80.3570152  22.0643788  41.1074269
  81.2710152  20.4243788  40.0984269  80.9240152  19.7683788  40.8964269
  82.3390152  20.6083788  40.2174269  80.9710152  19.8233788  38.7304269
  81.7430152  20.0423788  37.9924269  80.8660152  18.2973788  38.8164269
  80.0330152  17.7793788  39.5654269  81.7110152  17.5923788  38.0594269
  82.3870152  18.0903788  37.4974269  81.7000152  16.1223788  38.0094269
  80.7850152  15.8983788  37.4604269  82.9360152  15.5873788  37.2664269
  82.9320152  15.9953788  36.2554269  83.8270152  15.9293788  37.7924269
  82.9900152  14.0483788  37.1694269  82.0250152  13.6933788  36.8064269
  83.1730152  13.6473788  38.1664269  84.0770152  13.5263788  36.2344269
  85.2830152  13.7193788  36.5314269  83.7160152  12.9043788  35.2084269
  81.5350152  15.3883788  39.3444269  80.5890152  14.6093788  39.5184269
  82.4400152  15.6493788  40.2794269  83.1790152  16.3123788  40.0914269
  82.3760152  14.9903788  41.5694269  82.6090152  13.9363788  41.4174269
  83.1330152  15.4403788  42.2114269  81.0420152  15.0723788  42.2944269
  80.3100152  14.0783788  42.3714269  80.7070152  16.2753788  42.7644269
  81.3290152  17.0493788  42.5814269  79.4850152  16.5343788  43.5314269
  79.5600152  15.7943788  44.3284269  79.4700152  17.9763788  44.0504269
  79.5200152  18.6473788  43.1934269  78.5330152  18.1373788  44.5834269
  80.6090152  18.3173788  44.9844269  80.6180152  17.6003788  45.8054269
  80.4510152  19.3203788  45.3804269  81.9440152  18.2743788  44.2844269
  82.1370152  19.0583788  43.3334269  82.7910152  17.4383788  44.6644269
  78.1440152  16.2413788  42.8764269  78.0650152  15.7603788  41.7394269
  77.0890152  16.5193788  43.6384269  77.2480152  16.8813788  44.5674269
  75.7190152  16.3263788  43.1954269  75.6730152  16.0153788  42.1514269
  75.0390152  15.2183788  44.0134269  75.7080152  14.3583788  44.0444269
  74.8800152  15.5903788  45.0254269  73.6930152  14.7573788  43.4564269
  73.2830152  13.9893788  44.1124269  73.0130152  15.6083788  43.4254269
  73.8340152  14.1823788  42.0454269  74.3590152  13.2293788  42.1044269
  74.4120152  14.8783788  41.4374269  72.4770152  13.9583788  41.3844269
  71.8760152  13.3113788  42.0234269  72.6310152  13.4743788  40.4194269
  71.7430152  15.2403788  41.1694269  71.5950152  15.6973788  42.0584269
  72.2860152  15.8423788  40.5674269  70.8510152  15.0493788  40.7374269
  75.0210152  17.6663788  43.4044269  74.1630152  17.8133788  44.2884269
  75.4390152  18.6533788  42.6124269  76.1640152  18.4583788  41.9374269
  74.8910152  20.0053788  42.6814269  73.9100152  19.9083788  43.1464269
  75.7940152  20.9653788  43.5294269  75.2830152  21.9263788  43.5814269
  75.9850152  20.4533788  44.9464269  75.0120152  20.3353788  45.4244269
  76.4960152  19.4903788  44.9194269  76.5840152  21.1663788  45.5124269
  77.1430152  21.1483788  42.8684269  77.6550152  20.1873788  42.8164269
  77.0040152  21.5413788  41.8614269  77.7420152  21.8483788  43.4514269
  74.7900152  20.6173788  41.2864269  75.6450152  20.3823788  40.4314269
  73.7320152  21.3833788  41.0534269  73.0330152  21.4963788  41.7734269
  73.5600152  22.0653788  39.7764269  74.3630152  21.8113788  39.0844269
  72.2660152  21.6433788  39.0934269  71.4400152  21.7893788  39.7904269
  72.1150152  22.2703788  38.2144269  72.2800152  20.2013788  38.6594269
  73.2640152  19.9603788  38.2564269  72.0750152  19.5673788  39.5224269
  71.2330152  19.9433788  37.5964269  71.4720152  20.5353788  36.7124269
  70.2570152  20.2403788  37.9804269  71.1860152  18.4743788  37.2104269
  70.9260152  17.8813788  38.0874269  72.1650152  18.1683788  36.8414269
  70.1720152  18.2493788  36.1494269  69.2630152  18.5313788  36.4874269
  70.4120152  18.7943788  35.3334269  70.1510152  17.2693788  35.9064269
  73.5510152  23.5543788  40.0934269  72.6650152  24.0333788  40.7854269
  74.5670152  24.2663788  39.6134269  75.2560152  23.8003788  39.0404269
  74.7290152  25.6893788  39.8784269  74.0360152  25.9213788  40.6874269
  76.1940152  25.9873788  40.2994269  76.8420152  25.8653788  39.4314269
  76.3150152  27.4303788  40.8274269  76.0150152  28.1293788  40.0464269
  75.6670152  27.5553788  41.6954269  77.3480152  27.6273788  41.1134269
  76.6040152  25.0193788  41.4144269  76.0750152  25.3053788  42.3234269
  76.3020152  24.0143788  41.1194269  78.0770152  24.9963788  41.7164269
  78.6250152  24.6853788  40.8274269  78.4020152  25.9933788  42.0144269
  78.2710152  24.2933788  42.5264269  74.3470152  26.5883788  38.7124269
  75.0380152  26.6353788  37.6934269  73.2650152  27.3583788  38.8674269
  72.3400152  27.3703788  40.0054269  72.2400152  26.3793788  40.4484269
  72.6570152  28.0793788  40.7694269  71.0610152  27.8093788  39.3434269
  70.5860152  26.9813788  38.8174269  70.3640152  28.2253788  40.0714269
  71.5330152  28.8593788  38.3854269  71.7260152  29.7843788  38.9324269
  70.7930152  29.0343788  37.6044269  72.8110152  28.2643788  37.8024269
  72.6380152  27.7863788  36.8384269  73.8510152  29.3703788  37.6244269
  74.2400152  30.0273788  38.6044269  74.2980152  29.5563788  36.3764269
  73.9210152  28.9733788  35.6314269  75.4320152  30.4323788  36.0404269
  75.6190152  31.0943788  36.8844269  76.7380152  29.6403788  35.7914269
  77.5290152  30.3563788  35.5754269  77.1420152  28.8753788  37.0474269
  77.2140152  29.5663788  37.8854269  76.3750152  28.1383788  37.2724269
  78.1000152  28.3803788  36.9034269  76.6680152  28.6523788  34.6154269
  75.8970152  27.9103788  34.8254269  76.4230152  29.1823788  33.6954269
  77.6260152  28.1513788  34.4764269  75.1200152  31.3223788  34.8474269
  74.3360152  30.9503788  33.9664269  75.8440152  32.4413788  34.7894269
  76.5070152  32.6193788  35.5444269  75.9790152  33.2683788  33.6014269
  75.2250152  32.9703788  32.8724269  75.7230152  34.7343788  33.9554269
  74.7170152  34.8373788  34.3614269  76.4550152  35.0633788  34.6954269
  75.8130152  35.3563788  33.0634269  77.3610152  33.0353788  32.9844269
  78.3550152  32.8863788  33.7004269  77.4070152  33.0023788  31.6474269
  76.5410152  33.1583788  31.1344269  78.6240152  32.7303788  30.8694269
  79.4700152  32.6803788  31.5504269  78.5400152  31.3733788  30.1174269
  77.8620152  31.5163788  29.2914269  79.9020152  31.0303788  29.4924269
  80.2200152  31.8233788  28.8154269  80.6530152  30.9133788  30.2704269
  79.8470152  30.1073788  28.9154269  77.9630152  30.2123788  30.9684269
  78.6760152  29.9713788  31.7594269  77.0360152  30.5283788  31.4444269
  77.6210152  28.9233788  30.2014269  76.8500152  29.0863788  29.4484269
  78.5190152  28.5313788  29.7234269  77.2610152  28.2073788  30.9404269
  78.8270152  33.8993788  29.9014269  77.9120152  34.1963788  29.1354269
  79.9990152  34.5463788  29.8934269  80.7450152  34.1923788  30.4964269
  80.2790152  35.7233788  29.0424269  79.4380152  35.8923788  28.3684269
  80.4040152  36.9833788  29.9274269  79.4740152  37.0973788  30.4874269
  81.2070152  36.8123788  30.6394269  80.7060152  38.3203788  29.2184269
  81.6490152  38.2333788  28.6774269  79.9090152  38.5503788  28.5104269
  80.8220152  39.4543788  30.2624269  81.5290152  39.1343788  31.0244269
  79.8520152  39.6213788  30.7334269  81.3430152  40.7753788  29.6754269
  80.6230152  41.1633788  28.9494269  82.2750152  40.5523788  29.1494269
  81.6370152  41.8013788  30.7164269  80.8300152  42.3313788  31.0504269
  82.1280152  41.4003788  31.5284269  82.3370152  42.4483788  30.3744269
  81.5060152  35.4473788  28.1684269  82.5840152  35.1673788  28.6994269
  81.3190152  35.5163788  26.8404269  80.4090152  35.8273788  26.4974269
  82.3630152  35.2983788  25.8134269  83.3450152  35.4403788  26.2704269
  82.3270152  33.8793788  25.2174269  83.1800152  33.7683788  24.5484269
  82.4100152  33.1633788  26.0354269  81.0550152  33.5693788  24.4324269
  80.7730152  34.4583788  23.8684269  80.2640152  33.3223788  25.1404269
  81.2080152  32.4103788  23.4584269  81.3890152  31.2553788  23.9024269
  81.1290152  32.6553788  22.2364269  82.2430152  36.2803788  24.6474269
  81.2360152  36.9793788  24.5064269  83.2620152  36.2943788  23.7894269
  84.0460152  35.6773788  23.9494269  83.2810152  37.1783788  22.6184269
  82.6310152  38.0253788  22.8374269  84.7030152  37.6753788  22.3524269
  85.3240152  36.8023788  22.1504269  84.6690152  38.3103788  21.4664269
  85.3810152  38.4753788  23.4674269  85.2390152  37.9593788  24.4174269
  86.8780152  38.5713788  23.1894269  87.3030152  37.5693788  23.1354269
  87.0390152  39.0853788  22.2424269  87.3620152  39.1283788  23.9924269
  84.7460152  39.8573788  23.6074269  84.8670152  40.4083788  22.6754269
  83.6850152  39.7483788  23.8304269  85.2340152  40.4013788  24.4164269
  82.7450152  36.4693788  21.3684269  82.3160152  35.3143788  21.4344269
  82.7710152  37.1693788  20.2344269  83.1280152  38.1143788  20.2514269
  82.2990152  36.6133788  18.9644269  81.2910152  36.2233788  19.1054269
  82.2450152  37.7123788  17.8874269  81.6960152  38.5593788  18.2974269
  83.2680152  38.0163788  17.6634269  81.5720152  37.3023788  16.5694269
  82.0650152  36.4103788  16.1834269  81.6770152  38.1153788  15.8514269
  80.0840152  37.0013788  16.7654269  79.5570152  37.9423788  16.9254269
  79.9710152  36.3673788  17.6454269  79.4820152  36.3173788  15.6154269
  79.7440152  35.3553788  15.4524269  78.6150152  36.8733788  14.7714269
  78.2420152  38.1373788  14.9284269  77.5600152  38.5443788  14.3044269
  78.6400152  38.6923788  15.6724269  78.0870152  36.1493788  13.7904269
  78.3430152  35.1783788  13.6854269  77.4290152  36.5703788  13.1494269
  83.2040152  35.4523788  18.5184269  84.3580152  35.3533788  18.9484269
  82.6690152  34.5843788  17.6614269  81.7230152  34.7423788  17.3454269
  83.3850152  33.4113788  17.1544269  83.4300152  32.7333788  18.0064269
  82.6130152  32.7773788  15.9914269  83.2090152  31.9543788  15.5984269
  81.6710152  32.3903788  16.3814269  82.2960152  33.7223788  14.8414269
  83.2310152  34.0313788  14.3744269  81.7820152  34.5973788  15.2394269
  81.4150152  33.0783788  13.7864269  81.9010152  32.1783788  13.0694269
  80.2350152  33.4713788  13.6774269  84.8510152  33.6273788  16.7684269
  85.7140152  32.8323788  17.1444269  85.1310152  34.6913788  16.0194269
  84.3810152  35.3013788  15.7274269  86.5000152  34.9953788  15.6104269
  86.9750152  34.0763788  15.2674269  86.5060152  35.9913788  14.4574269
  85.9540152  35.5753788  13.6144269  86.0340152  36.9203788  14.7774269
  87.5340152  36.1913788  14.1554269  87.2910152  35.5453788  16.7994269
  86.7390152  36.2343788  17.6654269  88.5820152  35.2223788  16.8404269
  88.9690152  34.6533788  16.1014269  89.4550152  35.6673788  17.9234269
  88.8480152  35.6283788  18.8274269  90.6840152  34.7323788  18.0864269
  91.3070152  34.8203788  17.1964269  91.5050152  35.1353788  19.3184269
  91.8420152  36.1663788  19.2094269  90.8860152  35.0483788  20.2114269
  92.3700152  34.4773788  19.4094269  90.2420152  33.3773788  18.2434269
  90.5690152  33.0613788  19.0884269  89.9430152  37.1053788  17.7294269
  90.4540152  37.4663788  16.6604269  89.7470152  37.9253788  18.7614269
  89.2840152  37.5703788  19.5854269  90.1790152  39.3203788  18.7404269
  90.3800152  39.6393788  17.7174269  89.0760152  40.2383788  19.2904269
  88.9690152  40.0613788  20.3604269  88.1370152  40.0043788  18.7884269
  89.3840152  41.6083788  19.0774269  88.6650152  42.1283788  19.4444269
  91.4560152  39.4273788  19.5854269  91.5950152  38.7473788  20.6104269
  92.4240152  40.2483788  19.1334269  92.3750152  40.9363788  17.8294269
  91.8350152  40.3453788  17.0904269  91.9120152  41.9193788  17.9174269
  93.8360152  41.0493788  17.4784269  94.2330152  40.1013788  17.1144269
  94.0080152  41.8263788  16.7334269  94.4360152  41.4223788  18.8124269
  94.2350152  42.4663788  19.0534269  95.5120152  41.2483788  18.8194269
  93.7200152  40.4833788  19.7934269  94.2280152  39.5383788  19.9844269
  93.6480152  41.1013788  21.1914269  93.9690152  40.4503788  22.1884269
  93.2540152  42.3723788  21.2384269  93.0210152  42.8333788  20.3704269
  93.1400152  43.1373788  22.4794269  94.0240152  42.8903788  23.0664269
  93.0900152  44.6363788  22.1604269  92.9640152  45.1843788  23.0944269
  94.0340152  44.9223788  21.6964269  91.9540152  45.0193788  21.2194269
  92.0730152  44.4723788  20.2844269  91.0060152  44.7453788  21.6824269
  91.9400152  46.5073788  20.9184269  92.8830152  46.7853788  20.4474269
  91.8240152  47.0593788  21.8514269  90.7930152  46.8613788  19.9844269
  89.8530152  46.5803788  20.4604269  90.9110152  46.3033788  19.0554269
  90.7550152  48.3153788  19.6684269  90.6460152  48.8423788  20.5224269
  91.6170152  48.5843788  19.2144269  89.9770152  48.5063788  19.0534269
  91.9320152  42.7593788  23.3424269  91.9680152  42.9213788  24.5634269
  90.8620152  42.2803788  22.7104269  90.8900152  42.1823788  21.7054269
  89.6470152  41.8923788  23.4294269  89.3630152  42.7193788  24.0804269
  88.5150152  41.6273788  22.4494269  88.3350152  42.5213788  21.8524269
  88.7890152  40.8013788  21.7934269  87.6100152  41.3693788  23.0004269
  89.8890152  40.6693788  24.3084269  89.2480152  40.4963788  25.3424269
  90.8310152  39.8343788  23.8874269  91.3170152  40.0433788  23.0274269
  91.1890152  38.6293788  24.6204269  90.2790152  38.0743788  24.8474269
  92.1100152  37.7623788  23.7664269  93.0420152  38.3023788  23.5994269
  91.6230152  37.5723788  22.8094269  92.4270152  36.4393788  24.4194269
  93.5150152  36.4083788  25.1954269  91.7030152  35.4493788  24.2344269
  91.9260152  34.5703788  24.6794269  90.8910152  35.5223788  23.6384269
  91.8770152  38.9853788  25.9334269  91.6590152  38.3373788  26.9524269
  92.7380152  39.9963788  25.8874269  92.9100152  40.4553788  25.0044269
  93.4410152  40.4603788  27.0754269  93.9570152  39.6173788  27.5364269
  94.4810152  41.5283788  26.7114269  95.2510152  41.0643788  26.0944269
  93.9840152  42.3143788  26.1424269  95.1500152  42.1603788  27.9254269
  94.3760152  42.5443788  28.5894269  95.7260152  41.3943788  28.4444269
  96.0790152  43.2973788  27.5564269  95.5040152  44.0943788  27.0854269
  96.8350152  42.9343788  26.8604269  96.7620152  43.8383788  28.8034269
  97.2600152  43.0133788  29.3124269  96.0020152  44.2643788  29.4584269
  97.7730152  44.8893788  28.5034269  98.4850152  44.5083788  27.8964269
  97.3220152  45.6693788  28.0464269  98.1980152  45.2033788  29.3644269
  92.4240152  41.0623788  28.0354269  92.4570152  40.7963788  29.2354269
  91.5010152  41.8443788  27.4804269  91.5190152  41.9813788  26.4794269
  90.4670152  42.5103788  28.2584269  90.9920152  43.0833788  29.0224269
  89.6660152  43.4703788  27.3694269  89.2660152  42.9113788  26.5234269
  88.8430152  43.8833788  27.9534269  90.5180152  44.6283788  26.8344269
  91.2260152  44.2263788  26.1094269  91.0640152  45.0663788  27.6704269
  89.7110152  45.7323788  26.1564269  88.5880152  45.4603788  25.6684269
  90.2120152  46.8813788  26.1064269  89.5560152  41.5733788  29.0604269
  89.1560152  41.9053788  30.1814269  89.2380152  40.4033788  28.5124269
  89.5700152  40.1653788  27.5884269  88.4060152  39.4683788  29.2594269
  87.5340152  39.9863788  29.6654269  87.9480152  38.2353788  28.4574269
  88.8410152  37.7313788  28.0894269  87.2000152  37.2673788  29.4114269
  87.8850152  36.8403788  30.1424269  86.4160152  37.8263788  29.9194269
  86.7550152  36.4153788  28.9104269  87.0810152  38.6633788  27.2644269
  86.2640152  39.2943788  27.6184269  87.6930152  39.2413788  26.5714269
  86.4860152  37.4693788  26.5124269  87.2920152  36.8483788  26.1214269
  85.8090152  36.8863788  27.1324269  85.8720152  37.8293788  25.6874269
  89.2480152  38.9543788  30.4084269  88.7530152  38.8253788  31.5274269
  90.5140152  38.6733788  30.1294269  90.8730152  38.8093788  29.1954269
  91.3740152  38.1703788  31.1774269  90.8560152  37.3473788  31.6704269
  92.6720152  37.5833788  30.6064269  92.9610152  38.2063788  29.7604269
  93.4290152  37.6573788  31.3874269  92.6680152  36.1193788  30.1134269
  93.7040152  35.7793788  30.1034269  91.8530152  35.2423788  31.0524269
  92.2660152  35.3063788  32.0594269  90.8180152  35.5833788  31.0614269
  91.8920152  34.2083788  30.7094269  92.1150152  36.0043788  28.7144269
  91.0780152  36.3403788  28.7044269  92.7040152  36.6243788  28.0384269
  92.1630152  34.9653788  28.3884269  91.6230152  39.2273788  32.2504269
  91.7510152  38.8853788  33.4214269  91.6500152  40.5053788  31.8674269
  91.5440152  40.7313788  30.8884269  91.8300152  41.5863788  32.8364269
  92.7540152  41.4023788  33.3844269  91.9340152  42.9443788  32.1634269
  91.6240152  43.7093788  32.8754269  91.2660152  42.9573788  31.3024269
  93.3350152  43.2633788  31.6924269  94.3090152  42.7343788  32.2784269
  93.4590152  44.0643788  30.7394269  90.6170152  41.6103788  33.7424269
  90.7500152  41.7223788  34.9594269  89.4420152  41.4773788  33.1294269
  89.4300152  41.3763788  32.1244269  88.1230152  41.4273788  33.8024269
  88.0470152  42.2983788  34.4514269  86.9770152  41.5393788  32.7564269
  87.0750152  42.4953788  32.2404269  87.0870152  40.7433788  32.0214269
  85.5530152  41.4413788  33.3514269  85.4330152  42.2423788  34.0844269
  85.4620152  40.4953788  33.8874269  84.3850152  41.5293788  32.3374269
  84.5520152  42.0123788  31.1934269  83.2610152  41.1203788  32.7184269
  87.9770152  40.1793788  34.7004269  87.5010152  40.2663788  35.8334269
  88.5160152  39.0313788  34.2834269  88.8600152  38.9783788  33.3274269
  88.6300152  37.8473788  35.1314269  87.6340152  37.5503788  35.4634269
  89.2450152  36.7123788  34.3124269  88.6950152  36.5503788  33.3914269
  90.2620152  36.9893788  34.0574269  89.2530152  35.7923788  34.8984269
  89.4960152  38.1213788  36.3714269  89.0990152  37.7513788  37.4634269
  90.6400152  38.7733788  36.1854269  90.8800152  39.0713788  35.2504269
  91.5570152  39.0753788  37.2674269  91.8700152  38.1193788  37.6874269
  92.7810152  39.8413788  36.7344269  93.2870152  39.2143788  36.0004269
  92.4330152  40.7553788  36.2534269  93.7830152  40.2193788  37.8184269
  93.5680152  41.3153788  38.6624269  92.7020152  41.9423788  38.5064269
  94.4560152  41.6143788  39.7064269  94.2730152  42.4643788  40.3474269
  95.5610152  40.8193788  39.9094269  96.4420152  41.1033788  40.9164269
  97.3520152  40.8513788  40.7424269  95.7980152  39.7383788  39.0914269
  96.6660152  39.1173788  39.2554269  94.9110152  39.4433788  38.0444269
  95.1100152  38.5973788  37.4034269  90.8990152  39.8803788  38.3904269
  91.1410152  39.6083788  39.5594269  90.1040152  40.8903788  38.0434269
  89.9460152  41.0923788  37.0664269  89.4590152  41.7073788  39.0684269
  90.2250152  41.9173788  39.8144269  88.9550152  43.0703788  38.5364269
  88.5130152  43.6173788  39.3694269  90.0990152  43.8753788  37.9664269
  90.8510152  44.0363788  38.7394269  90.5450152  43.3333788  37.1324269
  89.7270152  44.8383788  37.6154269  87.9380152  42.8593788  37.4794269
  88.3850152  42.3123788  36.6494269  87.0330152  42.3903788  37.8454269
  87.5760152  43.8243788  37.1254269  88.3110152  40.9543788  39.7014269
  88.2190152  40.9083788  40.9254269  87.4820152  40.2943788  38.8874269
  87.6310152  40.3083788  37.8884269  86.3380152  39.5683788  39.4474269
  85.7580152  40.2613788  40.0584269  85.4300152  39.0563788  38.3294269
  84.6690152  38.4323788  38.7924269  86.0070152  38.4583788  37.6224269
  84.7090152  40.1773788  37.5814269  85.4270152  40.7403788  36.9884269
  84.2690152  40.8533788  38.3114269  83.3960152  39.5803788  36.4864269
  82.1510152  39.1753788  37.7384269  82.4780152  38.3303788  38.3414269
  82.0030152  40.0423788  38.3814269  81.2010152  38.9453788  37.2614269
  86.7660152  38.4113788  40.3674269  86.0340152  38.0533788  41.2864269
  87.9210152  37.8213788  40.0964269  88.4640152  38.1423788  39.3074269
  88.4250152  36.7263788  40.9034269  87.5980152  36.0683788  41.1724269
  89.4550152  35.9253788  40.1014269  88.9870152  35.5333788  39.1984269
  90.2870152  36.5743788  39.8274269  89.8240152  35.0983788  40.7074269
  89.0500152  37.2643788  42.1824269  89.3130152  36.5223788  43.1114269
  89.2720152  38.5663788  42.2314269  89.0010152  39.1453788  41.4494269
  89.9020152  39.1843788  43.3944269  90.3260152  38.3553788  43.9604269
  90.9620152  40.1743788  42.9204269  91.5120152  40.5503788  43.7834269
  90.4730152  41.0053788  42.4114269  91.8680152  39.5493788  42.0274269
  91.3620152  39.2333788  41.2754269  88.9600152  39.8943788  44.3674269
  89.4210152  40.6193788  45.2564269  87.6550152  39.7223788  44.1844269
  87.3340152  39.1403788  43.4244269  86.6750152  40.3593788  45.0614269
  87.2390152  40.8743788  45.8394269  85.7980152  41.3813788  44.3094269
  85.0850152  41.8153788  45.0094269  86.6440152  42.5343788  43.7534269
  87.1640152  43.0313788  44.5724269  87.3740152  42.1413788  43.0454269
  85.9960152  43.2493788  43.2474269  85.0250152  40.6743788  43.1974269
  85.7280152  40.2353788  42.4894269  84.4050152  39.8883788  43.6284269
  84.3910152  41.3953788  42.6804269  85.7490152  39.3123788  45.6464269
  85.2980152  38.4113788  44.9564269  85.4580152  39.4443788  46.9274269
  85.8600152  40.2093788  47.4494269  84.5750152  38.5143788  47.5984269
  83.9130152  38.0013788  46.9004269  85.4100152  37.4203788  48.2944269
  86.0520152  37.8933788  49.0374269  86.0260152  36.9233788  47.5454269
  84.5440152  36.3643788  48.9954269  83.3420152  36.2403788  48.6804269
  85.0670152  35.6483788  49.8744269  83.7210152  39.3333788  48.5914269
  84.1970152  39.7753788  49.6464269  82.4880152  39.6143788  48.1794269
  82.1940152  39.2863788  47.2704269  81.5440152  40.3773788  48.9874269
  81.6440152  40.0743788  50.0294269  81.8500152  41.8743788  48.8904269
  81.7410152  42.1853788  47.8514269  82.8770152  42.0413788  49.2134269
  80.9290152  42.7173788  49.7484269  79.8330152  43.0923788  49.3224269
  81.3610152  43.0053788  50.9744269  82.2660152  42.6773788  51.2814269
  80.7840152  43.5523788  51.5974269  80.1190152  40.0903788  48.5314269
  79.8810152  39.8343788  47.3604269  79.1510152  40.1163788  49.4614269
  79.3690152  40.1563788  50.9214269  80.3030152  39.6643788  51.1934269
  79.3790152  41.1823788  51.2894269  78.1900152  39.4053788  51.4504269
  78.3230152  38.3273788  51.3554269  77.9870152  39.6563788  52.4914269
  77.0830152  39.9273788  50.5114269  76.8080152  40.9523788  50.7614269
  76.1980152  39.2923788  50.5564269  77.7370152  39.8553788  49.1484269
  77.6180152  38.9033788  48.6324269  77.0980152  40.8233788  48.1674269
  76.0840152  40.5233788  47.5554269  77.7220152  41.9673788  47.9744269
  78.5850152  42.1543788  48.4644269  77.1840152  42.9623788  47.0654269
  76.2710152  42.5603788  46.6254269  76.8440152  44.2103788  47.8564269
  76.4270152  44.9553788  47.1784269  77.7560152  44.6013788  48.3084269
  75.8530152  43.9293788  48.9344269  74.5470152  43.5843788  48.6604269
  74.0860152  43.6103788  47.6844269  73.9480152  43.2163788  49.7794269
  72.9240152  42.8863788  49.8684269  74.8150152  43.3213788  50.7704269
  76.0110152  43.7743788  50.2684269  76.9100152  43.9703788  50.8344269
  78.0460152  43.2313788  45.8484269  77.9090152  44.2593788  45.1654269
  78.9420152  42.2833788  45.5834269  79.0360152  41.5053788  46.2204269
  79.7900152  42.3353788  44.4024269  79.4710152  43.1453788  43.7464269
  81.2370152  42.6433788  44.7614269  81.5840152  41.9193788  45.4994269
  82.1030152  42.5623788  43.5374269  82.0450152  41.5583788  43.1174269
  81.7570152  43.2853788  42.7994269  83.1350152  42.7843788  43.8074269
  81.3150152  44.0643788  45.3174269  80.9640152  44.7693788  44.5634269
  80.6890152  44.1413788  46.2064269  82.3470152  44.2963788  45.5784269
  79.6570152  40.9963788  43.6834269  79.5640152  39.9373788  44.3174269
  79.5700152  41.0433788  42.3604269  79.5670152  41.9473788  41.8914269
  79.4240152  39.8343788  41.5284269  78.7310152  39.1513788  42.0224269
  78.8370152  40.1643788  40.1504269  78.8620152  39.2753788  39.5144269
  79.4200152  40.9493788  39.6684269  77.1200152  40.6883788  40.3334269
  77.4370152  41.9123788  40.7874269  80.7560152  39.1033788  41.3534269
  81.6940152  39.6753788  40.8014269  80.8330152  37.8383788  41.7914269
  80.0240152  37.4053788  42.2114269  82.0850152  37.0793788  41.7734269
  82.8750152  37.8053788  41.5824269  82.2760152  36.3903788  43.1304269
  82.1010152  37.1343788  43.9074269  81.5300152  35.6003788  43.2094269
  83.6350152  35.7683788  43.3854269  84.3810152  36.5523788  43.5104269
  83.9130152  35.1333788  42.5444269  83.5500152  34.9323788  44.6554269
  82.6720152  34.2893788  44.5874269  83.4410152  35.6063788  45.5054269
  84.7230152  34.0903788  44.8804269  84.5990152  33.0893788  44.8344269
  85.9440152  34.5523788  45.1414269  86.1620152  35.8593788  45.2054269
  85.4040152  36.5063788  45.0424269  87.0860152  36.2073788  45.4174269
  86.9460152  33.7053788  45.3574269  86.7820152  32.7093788  45.3234269
  87.8720152  34.0583788  45.5554269  82.1560152  36.0943788  40.5934269
  81.1750152  35.4453788  40.2164269  83.3860152  35.9573788  40.0914269
  84.1170152  36.5173788  40.5074269  83.8000152  34.9493788  39.1214269
  83.0970152  34.9343788  38.2924269  85.1810152  35.3443788  38.5764269
  85.1600152  36.3803788  38.2614269  85.8990152  35.2643788  39.3944269
  85.6530152  34.4933788  37.3864269  85.2910152  33.4803788  37.5004269
  85.1280152  35.0553788  36.0634269  84.0400152  35.0543788  36.0654269
  85.4830152  36.0783788  35.9324269  85.4850152  34.4373788  35.2414269
  87.1790152  34.4373788  37.3654269  87.5890152  35.4323788  37.1904269
  87.5370152  34.0553788  38.3244269  87.5100152  33.7703788  36.5754269
  83.8180152  33.5533788  39.7534269  84.5150152  33.3013788  40.7334269
  83.1070152  32.6113788  39.1414269  82.6140152  32.8423788  38.2834269
  83.2150152  31.2073788  39.5184269  83.2990152  31.1603788  40.6074269
  81.9490152  30.4553788  39.1084269  81.7860152  30.5703788  38.0374269
  82.1030152  29.3933788  39.3394269  80.7400152  30.9923788  39.8904269
  80.6920152  32.0793788  39.8394269  79.4400152  30.4513788  39.3094269
  79.3240152  30.7953788  38.2824269  79.4810152  29.3683788  39.3094269
  78.5930152  30.7963788  39.9024269  80.8860152  30.5633788  41.3484269
  80.9140152  29.4753788  41.4164269  81.8020152  30.9773788  41.7694269
  80.0280152  30.9403788  41.9044269  84.4440152  30.5723788  38.8644269
  85.0990152  29.7093788  39.4504269  84.7500152  31.0123788  37.6474269
  84.1620152  31.7023788  37.1864269  85.9180152  30.5463788  36.9554269
  86.8220152  30.9483788  37.4124269  85.9170152  29.4603788  37.0464269
  85.9330152  30.9283788  35.4864269  85.1030152  31.7213788  35.0284269
  86.8910152  30.3443788  34.7594269  87.5690152  29.7473788  35.2104269
  86.9830152  30.5803788  33.3304269  86.0630152  31.0423788  32.9824269
  88.1650152  31.5193788  32.9524269  88.1680152  31.5963788  31.8654269
  87.8970152  32.9313788  33.5014269  86.8760152  33.2273788  33.2714269
  88.0360152  32.9433788  34.5794269  88.5680152  33.6583788  33.0464269
  89.5010152  30.9583788  33.4334269  89.5220152  30.9883788  34.5224269
  89.5880152  29.9253788  33.0974269  90.6910152  31.7503788  32.8984269
  90.6910152  31.7143788  31.8094269  90.6160152  32.7863788  33.2284269
  91.6160152  31.3153788  33.2764269  87.1050152  29.2393788  32.6234269
  87.4710152  28.2153788  33.2354269  86.6850152  29.2333788  31.3634269
  86.3080152  30.0853788  30.9724269  86.7480152  28.0433788  30.5234269
  87.2400152  27.2143788  31.0314269  85.3310152  27.5523788  30.1754269
  84.8500152  28.3103788  29.5574269  84.7740152  27.4343788  31.1044269
  85.2780152  25.9643788  29.2734269  85.8330152  25.0073788  30.0234269
  87.5320152  28.4513788  29.2684269  87.1210152  29.3513788  28.5314269
  88.6960152  27.8363788  29.0744269  88.9950152  27.1293788  29.7304269
  89.5500152  28.1593788  27.9364269  89.4390152  29.2243788  27.7334269
  91.0130152  27.8643788  28.2784269  91.0940152  26.8033788  28.5164269
  91.6150152  28.0853788  27.3964269  91.5920152  28.6583788  29.4564269
  90.9540152  28.4913788  30.3244269  92.9990152  28.1683788  29.7324269
  92.9750152  27.1013788  29.9544269  93.6230152  28.3433788  28.8564269
  93.4110152  28.7083788  30.5854269  91.5960152  30.1773788  29.1994269
  92.2240152  30.3983788  28.3364269  90.5780152  30.5153788  29.0044269
  91.9880152  30.6933788  30.0754269  89.1270152  27.4313788  26.6664269
  89.5540152  26.3133788  26.4114269  88.2800152  28.0793788  25.8774269
  87.9710152  29.0023788  26.1464269  87.7800152  27.5023788  24.6354269
  87.9520152  26.4263788  24.6214269  86.2520152  27.7423788  24.5034269
  86.0940152  28.7813788  24.2124269  85.6450152  26.8173788  23.4404269
  86.1260152  27.0033788  22.4794269  85.8020152  25.7783788  23.7304269
  84.5760152  27.0133788  23.3554269  85.6160152  27.4643788  25.7554269
  86.0010152  28.0483788  26.4124269  88.5160152  28.1853788  23.4834269
  89.6820152  28.5403788  23.6234269  87.8560152  28.3403788  22.3404269
  86.9150152  27.9813788  22.2624269  88.4560152  29.0143788  21.1994269
  89.3520152  28.5213788  20.8234269  87.4510152  29.0593788  20.0534269
  87.9760152  29.2753788  19.1234269  86.7190152  29.8433788  20.2474269
  86.7820152  27.8143788  19.9344269  86.1640152  27.8853788  19.2034269
  88.7360152  30.4233788  21.7184269  89.8060152  30.9943788  21.4914269
  87.7440152  30.9603788  22.4284269  86.8890152  30.4313788  22.5244269
  87.8200152  32.2693788  23.0764269  88.8000152  32.7113788  22.8954269
  86.7810152  33.2893788  22.5314269  86.8430152  34.1953788  23.1344269
  87.0870152  33.6583788  21.0794269  88.0890152  34.0823788  21.0154269
  87.0310152  32.7643788  20.4574269  86.3600152  34.3903788  20.7294269
  85.4570152  32.7443788  22.6314269  85.0840152  32.7243788  21.7474269
  87.5130152  31.9993788  24.5464269  86.7630152  31.0683788  24.8844269
  88.1190152  32.7913788  25.4184269  88.7350152  33.5183788  25.0834269
  87.9140152  32.6323788  26.8454269  88.0560152  31.5783788  27.0834269
  88.9430152  33.4653788  27.6274269  89.9440152  33.0993788  27.4014269
  88.8620152  34.9153788  27.2014269  89.0560152  34.9913788  26.1314269
  87.8670152  35.3033788  27.4184269  89.6050152  35.4963788  27.7474269
  88.7300152  33.3113788  29.1274269  87.7620152  33.7003788  29.4404269
  88.8230152  32.2603788  29.4014269  89.4790152  33.8943788  29.6624269
  86.4830152  33.0023788  27.2664269  85.8850152  33.9263788  26.7194269
  85.9290152  32.2233788  28.1924269  86.4660152  31.4463788  28.5514269
  84.5900152  32.4393788  28.7124269  84.1170152  33.2803788  28.2074269
  83.7030152  31.1983788  28.5194269  84.1220152  30.3853788  29.0944269
  82.7100152  31.4203788  28.9074269  83.5780152  30.7083788  27.0744269
  84.5650152  30.4133788  26.7184269  83.1980152  31.5223788  26.4574269
  82.6330152  29.5133788  26.9454269  82.7300152  28.5333788  27.6924269
  81.7110152  29.5983788  25.9964269  81.6670152  30.4173788  25.4074269
  81.0530152  28.8433788  25.8624269  84.7600152  32.7623788  30.1854269
  85.3690152  31.9733788  30.9104269  84.2070152  33.8913788  30.6334269
  83.6940152  34.4683788  29.9654269  83.9640152  34.1053788  32.0574269
  84.8290152  33.7703788  32.6284269  83.7100152  35.5943788  32.3694269
  82.7950152  35.8863788  31.8644269  83.5500152  35.6983788  33.4444269
  84.7920152  36.5923788  31.9324269  84.8640152  36.5643788  30.8474269
  84.4030152  38.0073788  32.3614269  83.4480152  38.2773788  31.9184269
  84.3300152  38.0793788  33.4484269  85.1450152  38.7183788  32.0024269
  86.1540152  36.2803788  32.5444269  86.0780152  36.2203788  33.6274269
  86.5320152  35.3423788  32.1424269  86.8510152  37.0773788  32.2894269
  82.7570152  33.2563788  32.4714269  81.7520152  33.2363788  31.7544269
  82.8080152  32.6693788  33.6704269  83.6910152  32.6373788  34.1794269
  81.6440152  32.0973788  34.3484269  80.7600152  32.3063788  33.7474269
  81.7410152  30.5553788  34.4754269  82.5850152  30.2913788  35.1164269
  80.4550152  30.0173788  35.1264269  80.3090152  30.4433788  36.1164269
  79.5960152  30.2583788  34.4974269  80.5150152  28.9353788  35.2404269
  81.8850152  29.8423788  33.1074269  81.4290152  28.8523788  33.1564269
  81.3470152  30.4083788  32.3484269  83.3310152  29.6233788  32.6534269
  83.8520152  30.5703788  32.5534269  83.8590152  28.9973788  33.3714269
  83.3240152  29.1273788  31.6834269  81.4510152  32.8093788  35.6944269
  82.3860152  32.8983788  36.4964269  80.2200152  33.2533788  35.9714269
  79.4860152  33.1413788  35.2704269  79.8090152  33.9123788  37.2224269
  80.5230152  33.6723788  38.0074269  79.7620152  35.4523788  37.1064269
  79.4540152  35.8583788  38.0704269  81.0880152  36.1183788  36.7404269
  81.6540152  36.3113788  37.6454269  81.6730152  35.4993788  36.0664269
  80.8990152  37.0653788  36.2424269  78.7990152  35.8603788  36.1674269
  78.5940152  36.8063788  36.3524269  78.4450152  33.3863788  37.6724269
  77.7490152  32.6783788  36.9374269  78.0450152  33.7213788  38.9034269
  78.6530152  34.2763788  39.4884269  76.6960152  33.4363788  39.3844269
  76.5240152  32.3613788  39.3194269  76.5780152  33.8593788  40.8524269
  77.2080152  33.2103788  41.4634269  76.9280152  34.8883788  40.9554269
  75.1260152  33.7793788  41.3454269  74.7450152  32.7713788  41.1894269
  74.5050152  34.4833788  40.7974269  74.9970152  34.1543788  42.8034269
  75.6190152  35.0753788  43.2964269  74.1490152  33.5093788  43.5684269
  73.6300152  32.7283788  43.1914269  74.1190152  33.8123788  44.5214269
  75.6450152  34.1493788  38.5244269  75.7440152  35.3543788  38.3044269
  74.5830152  33.4253788  38.1414269  74.5380152  32.4513788  38.4114269
  73.4120152  33.9793788  37.4614269  73.7700152  34.5683788  36.6174269
  72.5360152  32.8303788  36.9224269  73.1510152  32.1623788  36.3294269
  72.1640152  32.2623788  37.7764269  71.3320152  33.2653788  36.0614269
  70.7280152  33.9853788  36.6124269  71.7560152  33.8913788  34.7274269
  72.3090152  34.8103788  34.9074269  72.3810152  33.1973788  34.1624269
  70.8720152  34.1403788  34.1404269  70.4500152  32.0523788  35.7534269
  71.0280152  31.3023788  35.2114269  70.0880152  31.6213788  36.6874269
  69.5960152  32.3683788  35.1564269  72.6060152  34.8923788  38.3984269
  72.3240152  34.5293788  39.5404269  72.1580152  36.0323788  37.8744269
  72.4490152  36.2773788  36.9344269  71.3620152  37.0213788  38.5954269
  71.2540152  36.7373788  39.6414269  72.1250152  38.3503788  38.5834269
  71.5430152  39.1003788  39.1154269  72.2480152  38.6793788  37.5504269
  73.5200152  38.2223788  39.2294269  74.0670152  39.1443788  39.0574269
  74.0810152  37.4323788  38.7304269  73.5480152  37.8973788  41.0134269
  73.1390152  39.5603788  41.5964269  73.9510152  40.2413788  41.3464269
  72.2250152  39.9073788  41.1204269  72.9960152  39.5423788  42.6734269
  69.9670152  37.0703788  37.9454269  69.7660152  37.8123788  36.9784269
  69.0350152  36.1803788  38.3584269  69.0650152  35.3383788  39.5484269
  70.0630152  35.0593788  39.8604269  68.5630152  35.8623788  40.3584269
  68.2780152  34.0853788  39.1884269  68.9090152  33.4013788  38.6184269
  67.8670152  33.5973788  40.0724269  67.1850152  34.6583788  38.2944269
  66.3950152  35.0803788  38.9194269  66.7760152  33.9023788  37.6224269
  67.9050152  35.7723788  37.5224269  68.3010152  35.3573788  36.5944269
  66.9320152  36.8953788  37.1724269  66.2340152  36.7843788  36.1684269
  66.9150152  37.9853788  37.9444269  67.5750152  38.0583788  38.7084269
  66.0350152  39.1203788  37.6964269  65.1750152  38.7343788  37.1484269
  65.4590152  39.6273788  39.0174269  66.2850152  39.7923788  39.6964269
  64.9520152  40.5793788  38.8574269  64.4880152  38.6723788  39.6764269
  63.1110152  38.7253788  39.3934269  62.7290152  39.4403788  38.6824269
  62.2310152  37.8273788  40.0244269  61.1740152  37.8593788  39.8004269
  62.7260152  36.8773788  40.9344269  62.0480152  36.1863788  41.4174269
  64.1030152  36.8153788  41.2094269  64.4870152  36.0723788  41.8944269
  64.9820152  37.7093788  40.5764269  66.0420152  37.6413788  40.7674269
  66.5860152  40.1913788  36.7474269  65.9450152  41.2203788  36.5434269
  67.7800152  39.9583788  36.1844269  68.2840152  39.1133788  36.4384269
  68.4230152  40.8593788  35.2304269  69.1720152  40.3023788  34.6664269
  67.6720152  41.2193788  34.5264269  69.0990152  42.0673788  35.8824269
  69.4970152  42.0253788  37.0504269  69.3180152  43.1193788  35.0814269
  68.9480152  43.0973788  34.1444269  69.9740152  44.3513788  35.5324269
  70.6850152  44.0773788  36.3094269  70.7790152  45.0093788  34.3934269
  71.2830152  44.2463788  33.7974269  71.5540152  45.6323788  34.8464269
  69.7810152  46.0863788  33.3144269  69.0710152  45.1343788  32.7004269
  68.9570152  45.3073788  36.1734269  67.7830152  45.3553788  35.7904269
  69.4230152  46.0783788  37.1614269  70.4100152  46.0153788  37.4134269
  68.5360152  46.8933788  37.9924269  67.7440152  46.2423788  38.3634269
  69.3260152  47.5193788  39.1504269  69.9250152  46.7293788  39.6034269
  69.9850152  48.2763788  38.7254269  68.5220152  48.1843788  40.2684269
  67.9740152  49.0323788  39.8574269  67.5250152  47.1933788  40.8444269
  66.8540152  46.8533788  40.0554269  68.0600152  46.3393788  41.2594269
  66.9460152  47.6763788  41.6314269  69.4500152  48.7043788  41.3504269
  70.0110152  47.8733788  41.7784269  70.1430152  49.4263788  40.9184269
  68.8630152  49.1873788  42.1314269  67.8010152  47.9743788  37.2054269
  66.6430152  48.2523788  37.4944269  68.4770152  48.5863788  36.2364269
  69.4410152  48.3293788  36.0814269  67.8810152  49.6153788  35.3884269
  67.6600152  50.4713788  36.0264269  68.8410152  50.0443788  34.2814269
  69.7590152  50.3963788  34.7514269  69.1050152  49.1753788  33.6764269
  68.3310152  51.1543788  33.3544269  67.3900152  50.8383788  32.9044269
  68.0870152  52.4363788  34.1584269  67.3520152  52.2413788  34.9394269
  69.0220152  52.7633788  34.6134269  67.7140152  53.2163788  33.4944269
  69.3490152  51.4133788  32.2344269  70.2960152  51.7313788  32.6704269
  69.5010152  50.4973788  31.6624269  68.9720152  52.1953788  31.5744269
  66.6070152  49.1013788  34.7464269  65.5240152  49.6393788  34.9954269
  66.6800152  48.0603788  33.9154269  67.5660152  47.6193788  33.7174269
  65.4690152  47.5313788  33.2904269  64.9500152  48.3803788  32.8504269
  65.8120152  46.5983788  32.1284269  64.9020152  46.0913788  31.8054269
  66.5210152  45.8403788  32.4694269  66.3800152  47.3603788  30.9254269
  65.8880152  48.4803788  30.6294269  67.3180152  46.8073788  30.3134269
  64.4630152  46.9523788  34.2864269  63.2510152  47.1043788  34.1014269
  64.9660152  46.4603788  35.4284269  65.9750152  46.3473788  35.5264269
  64.0970152  45.9953788  36.4964269  63.4430152  45.2253788  36.0844269
  64.9270152  45.3703788  37.6204269  65.6220152  44.6423788  37.1984269
  65.5030152  46.1333788  38.1474269  64.0390152  44.6723788  38.6174269
  63.6670152  43.3343788  38.3944269  64.0500152  42.8033788  37.5314269
  62.7910152  42.7033788  39.2954269  62.4840152  41.6833788  39.1344269
  62.2970152  43.4183788  40.4094269  61.4180152  42.8003788  41.2744269
  61.5330152  41.8513788  41.3604269  62.6780152  44.7343788  40.6274269
  62.3040152  45.2743788  41.4844269  63.5430152  45.3503788  39.7354269
  63.8400152  46.3743788  39.9074269  63.2130152  47.1423788  37.0244269
  61.9960152  46.9473788  37.1024269  63.7610152  48.3143788  37.3424269
  64.7550152  48.4583788  37.2364269  62.9100152  49.3863788  37.8444269
  62.3420152  48.9523788  38.6674269  63.6960152  50.5843788  38.4454269
  62.9740152  51.3263788  38.7854269  64.5090152  50.1363788  39.6314269
  63.8490152  49.6993788  40.3804269  65.2390152  49.3923788  39.3114269
  65.0280152  50.9933788  40.0604269  64.5650152  51.2503788  37.4084269
  65.3040152  50.5383788  37.0424269  63.9450152  51.5903788  36.5784269
  65.0740152  52.1043788  37.8554269  61.9500152  49.8683788  36.7614269
  60.8390152  50.3033788  37.0604269  62.3660152  49.7513788  35.5024269
  63.2830152  49.3713788  35.3154269  61.5190152  50.1633788  34.3904269
  61.1580152  51.1643788  34.6284269  62.3150152  50.2153788  33.0944269
  62.9370152  49.3223788  33.0404269  61.6110152  50.2183788  32.2624269
  63.2110152  51.4243788  32.9594269  63.8530152  51.4963788  33.8374269
  62.5960152  52.3213788  32.8844269  64.0760152  51.3033788  31.7134269
  63.4250152  51.2053788  30.8444269  64.6970152  50.4123788  31.8044269
  64.9450152  52.4613788  31.5184269  64.8200152  53.2563788  32.1294269
  65.8940152  52.5343788  30.5834269  66.0860152  51.5033788  29.7624269
  66.8020152  51.5503788  29.0524269  65.5150152  50.6743788  29.8504269
  66.6530152  53.6323788  30.4644269  66.5090152  54.4153788  31.0864269
  67.3690152  53.6773788  29.7534269  60.2860152  49.2663788  34.2224269
  59.1530152  49.7503788  34.1684269  60.4810152  47.9623788  34.1734269
  61.4090152  47.5703788  34.2474269  59.3250152  47.1163788  34.0114269
  58.5960152  47.7303788  33.4824269  59.6280152  45.8913788  33.1294269
  58.7100152  45.6273788  32.6034269  60.3900152  46.1843788  32.4064269
  60.2300152  44.6513788  33.8184269  59.7010152  44.4463788  34.7284269
  61.2700152  44.8513788  34.0834269  60.1370152  43.3683788  32.9894269
  60.5230152  43.4153788  31.8014269  59.7080152  42.3503788  33.5874269
  58.6340152  46.7373788  35.3124269  57.8910152  45.7573788  35.3594269
  58.8700152  47.5003788  36.3734269  59.5120152  48.2773788  36.3054269
  58.1980152  47.2133788  37.6424269  57.2730152  46.7043788  37.3714269
  59.0320152  46.2683788  38.5374269  58.5390152  46.1963788  39.5064269
  60.0220152  46.7073788  38.6654269  59.2030152  44.8783788  37.9944269
  58.4080152  43.7813788  38.0804269  57.4520152  43.7213788  38.5784269
  59.0460152  42.7623788  37.4154269  58.6020152  41.7953788  37.2054269
  60.1870152  43.1813788  36.8854269  60.6820152  42.7243788  36.1234269
  60.3120152  44.4853788  37.2744269  61.0950152  45.0793788  37.0394269
  57.8040152  48.4823788  38.4204269  57.3280152  48.3753788  39.5474269
  57.9610152  49.6643788  37.8044269  58.3280152  49.6693788  36.8634269
  57.6230152  50.9603788  38.4344269  58.5200152  51.1833788  39.0114269
  57.3070152  52.0573788  37.3994269  56.2270152  52.0553788  37.2484269
  57.6110152  53.0083788  37.8364269  57.9500152  51.9683788  36.0294269
  59.0000152  52.2513788  36.1054269  57.8750152  50.9443788  35.6624269
  57.2380152  52.9143788  35.0474269  57.1970152  53.9093788  35.4904269
  56.2250152  52.5473788  34.8834269  57.9510152  53.0113788  33.6884269
  57.2690152  53.4683788  32.9714269  58.2040152  52.0043788  33.3574269
  59.2160152  53.8313788  33.7344269  58.9980152  54.7693788  34.0394269
  59.8670152  53.4093788  34.3814269  59.6300152  53.8643788  32.8134269
  56.3940152  50.9143788  39.3464269  56.4180152  51.4133788  40.4724269
  55.3080152  50.3443788  38.8314269  55.3610152  49.9493788  37.9034269
  54.0430152  50.2683788  39.5554269  53.9110152  51.2653788  39.9754269
  52.9010152  49.9073788  38.5864269  51.9590152  49.9373788  39.1334269
  53.0700152  48.8983788  38.2104269  52.8040152  50.8643788  37.3924269
  53.0650152  52.0783788  37.5544269  52.4650152  50.3973788  36.2824269
  54.0120152  49.3353788  40.7624269  52.9710152  49.1873788  41.4014269
  55.1410152  48.7113788  41.0754269  55.9680152  48.8783788  40.5204269
  55.2130152  47.7893788  42.2054269  54.3600152  48.0303788  42.8404269
  55.1300152  46.3273788  41.7304269  55.4080152  45.6773788  42.5594269
  55.8330152  46.1893788  40.9084269  53.7440152  45.9343788  41.2524269
  52.9060152  45.4843788  42.0404269  53.5030152  46.0763788  39.9514269
  52.6050152  45.8113788  39.5724269  54.2180152  46.4493788  39.3434269
  56.4910152  47.9593788  43.0244269  56.8620152  47.0653788  43.7954269
  57.1790152  49.0833788  42.8484269  56.8460152  49.7803788  42.1974269
  58.4090152  49.3123788  43.5894269  58.7070152  48.3733788  44.0564269
  59.5470152  49.7353788  42.6474269  59.2190152  50.5873788  42.0524269
  60.7630152  50.1373788  43.4454269  60.5080152  50.9693788  44.1024269
  61.1000152  49.2913788  44.0444269  61.5590152  50.4413788  42.7664269
  59.9030152  48.5643788  41.7214269  60.4240152  47.8083788  42.3094269
  58.9770152  48.1443788  41.3284269  60.7870152  48.9513788  40.5504269
  60.2730152  49.6903788  39.9364269  61.7200152  49.3743788  40.9234269
  61.0030152  48.0673788  39.9504269  58.1920152  50.3233788  44.7044269
  58.0060152  51.5163788  44.4634269  58.1760152  49.8163788  45.9304269
  58.3100152  48.8233788  46.0594269  57.9700152  50.6633788  47.0874269
  57.3450152  51.5053788  46.7894269  57.4550152  50.0813788  47.8514269
  59.2510152  51.2063788  47.6834269  60.3150152  50.6013788  47.5504269
  59.1160152  52.3093788  48.4154269  58.1880152  52.6883788  48.5374269
  60.2280152  53.0023788  49.0504269  60.8090152  53.3993788  48.2174269
  59.6930152  54.1063788  49.9554269  59.1350152  54.8253788  49.3554269
  60.5280152  54.6093788  50.4424269  58.8400152  53.5583788  50.9404269
  58.1150152  53.1223788  50.4864269  61.2230152  52.1393788  49.8254269
  62.3930152  52.4853788  49.9084269  60.7610152  51.0393788  50.4104269
  59.7830152  50.8013788  50.3324269  61.6560152  50.1793788  51.1604269
  62.1890152  50.8063788  51.8754269  60.8760152  49.1213788  51.9134269
  60.1120152  49.6173788  52.5124269  60.3980152  48.4633788  51.1874269
  61.7310152  48.2793788  52.8314269  62.5510152  47.8523788  52.2534269
  61.1190152  47.4763788  53.2414269  62.3090152  49.0853788  53.9764269
  63.5030152  49.6493788  53.7714269  61.6890152  49.2023788  55.0374269
  62.0820152  49.7423788  55.7954269  60.7890152  48.7583788  55.1474269
  62.6810152  49.5083788  50.2424269  63.8530152  49.3543788  50.6034269
  62.2280152  49.1103788  49.0614269  61.2560152  49.2533788  48.8284269
  63.1030152  48.4743788  48.1014269  63.6660152  47.6933788  48.6124269
  62.2980152  47.8093788  46.9954269  61.4940152  48.4833788  46.7004269
  62.9570152  47.6363788  46.1444269  61.6890152  46.4873788  47.4054269
  60.5920152  46.4263788  48.2564269  60.1750152  47.3403788  48.6524269
  60.0210152  45.2053788  48.6074269  59.1670152  45.1733788  49.2674269
  60.5570152  44.0343788  48.1034269  60.0300152  42.8053788  48.4354269
  59.2730152  42.8343788  49.0254269  61.6420152  44.0773788  47.2624269
  62.0590152  43.1613788  46.8704269  62.2000152  45.2983788  46.9184269
  63.0520152  45.3213788  46.2554269  64.1040152  49.4713788  47.5434269
  65.3070152  49.1793788  47.4684269  63.6360152  50.6683788  47.2084269
  62.6520152  50.8743788  47.3084269  64.5510152  51.6863788  46.6944269
  65.0000152  51.2713788  45.7914269  63.8040152  52.9583788  46.3374269
  63.1390152  53.2073788  47.1644269  64.5330152  53.7573788  46.2044269
  62.9650152  52.8563788  45.0594269  62.3700152  51.9433788  45.0974269
  61.9910152  54.0243788  44.9314269  61.3230152  54.0363788  45.7934269
  62.5490152  54.9593788  44.8904269  61.4050152  53.9103788  44.0194269
  63.9070152  52.8283788  43.8704269  64.4930152  53.7473788  43.8494269
  64.5770152  51.9723788  43.9574269  63.3280152  52.7453788  42.9504269
  65.6890152  51.9993788  47.6704269  66.8680152  51.9593788  47.2934269
  65.3430152  52.2433788  48.9334269  64.3680152  52.2003788  49.1934269
  66.3400152  52.5723788  49.9544269  66.9790152  53.3373788  49.5134269
  65.6780152  53.1573788  51.2064269  64.9460152  52.4463788  51.5884269
  66.4410152  53.3353788  51.9634269  64.9730152  54.4783788  50.8854269
  64.4170152  54.3513788  49.9564269  63.9950152  54.8233788  51.9854269
  63.2700152  54.0163788  52.0924269  64.5350152  54.9543788  52.9234269
  63.4760152  55.7473788  51.7334269  65.9740152  55.6143788  50.6424269
  66.5590152  55.7823788  51.5464269  66.6400152  55.3423788  49.8234269
  65.4340152  56.5253788  50.3844269  67.2710152  51.4153788  50.3004269
  68.4460152  51.6483788  50.5504269  66.7550152  50.1873788  50.3504269
  65.7630152  50.0573788  50.2124269  67.6120152  49.0193788  50.6044269
  68.1380152  49.2053788  51.5404269  66.8040152  47.7223788  50.7754269
  67.4780152  46.8743788  50.6514269  66.0330152  47.6893788  50.0054269
  66.1260152  47.6113788  52.1514269  66.3440152  48.4323788  53.0464269
  65.3160152  46.5693788  52.3234269  64.8550152  46.4293788  53.2114269
  65.1630152  45.9183788  51.5664269  68.6200152  48.8463788  49.4474269
  69.7670152  48.4823788  49.6864269  68.2140152  49.1173788  48.2024269
  67.2620152  49.4053788  48.0284269  69.1640152  48.9923788  47.0934269
  69.5830152  47.9873788  47.1394269  68.4930152  49.1243788  45.7194269
  67.9460152  50.0663788  45.6884269  69.2680152  49.1293788  44.9524269
  67.5430152  48.0123788  45.4294269  67.5930152  46.7463788  45.9334269
  68.3610152  46.3743788  46.5954269  66.5150152  46.0043788  45.4724269
  66.3210152  45.0413788  45.7064269  65.7570152  46.7933788  44.6484269
  64.5870152  46.4943788  43.9444269  64.1380152  45.5133788  43.9954269
  64.0300152  47.4953788  43.1854269  63.1280152  47.2943788  42.6264269
  64.6060152  48.7713788  43.1204269  64.1380152  49.5363788  42.5184269
  65.7790152  49.0693788  43.8244269  66.2190152  50.0543788  43.7684269
  66.3690152  48.0703788  44.6004269  70.2830152  50.0163788  47.2464269
  71.4400152  49.6843788  47.0364269  69.9520152  51.2383788  47.6724269
  68.9820152  51.4523788  47.8574269  70.9670152  52.2723788  47.8764269
  71.5070152  52.3943788  46.9374269  70.3260152  53.5963788  48.2424269
  71.1150152  54.2913788  48.5304269  69.6600152  53.4323788  49.0894269
  69.3750152  54.3413788  46.9114269  68.3820152  53.5203788  46.5594269
  71.9630152  51.8543788  48.9654269  73.1640152  52.0973788  48.8404269
  71.4700152  51.1883788  50.0034269  70.4780152  51.0033788  50.0474269
  72.3350152  50.7173788  51.0834269  72.9130152  51.5683788  51.4444269
  71.5030152  50.1473788  52.2884269  70.7500152  49.4733788  51.8794269
  72.3950152  49.4013788  53.2444269  72.8910152  48.5863788  52.7174269
  73.1450152  50.0823788  53.6484269  71.7960152  48.9963788  54.0594269
  70.8400152  51.2763788  53.0514269  71.6040152  51.9413788  53.4544269
  70.1890152  51.8363788  52.3794269  70.2490152  50.8643788  53.8694269
  73.2710152  49.6223788  50.5494269  74.4820152  49.6873788  50.7424269
  72.6880152  48.6243788  49.8844269  71.6850152  48.6493788  49.7694269
  73.4210152  47.4973788  49.3124269  73.9550152  47.0063788  50.1264269
  72.4420152  46.5223788  48.6774269  71.7300152  47.0803788  48.0694269
  72.9940152  45.8273788  48.0444269  71.6770152  45.7283788  49.7374269
  71.1340152  46.4293788  50.3704269  72.3960152  45.1743788  50.3414269
  70.6950152  44.7543788  49.1504269  70.8640152  44.2813788  48.0254269
  69.6580152  44.4403788  49.9054269  69.5580152  44.8513788  50.8224269
  68.9650152  43.7893788  49.5654269  74.4770152  47.9283788  48.3114269
  75.6300152  47.4553788  48.3584269  74.1010152  48.8443788  47.4184269
  73.1580152  49.2053788  47.4284269  75.0510152  49.3203788  46.4334269
  75.4530152  48.4693788  45.8844269  74.3930152  50.2413788  45.3884269
  73.8640152  51.0443788  45.9024269  75.4710152  50.8953788  44.4844269
  76.1610152  51.4723788  45.1004269  76.0210152  50.1173788  43.9544269
  74.9890152  51.5553788  43.7634269  73.3790152  49.4533788  44.5664269
  73.9160152  48.7133788  43.9734269  72.6990152  48.9463788  45.2504269
  72.5540152  50.3253788  43.6214269  71.9930152  51.0593788  44.2004269
  73.2190152  50.8403788  42.9284269  71.8610152  49.6983788  43.0604269
  76.1610152  50.0633788  47.1764269  77.3180152  49.9253788  46.8254269
  75.8170152  50.8233788  48.2184269  74.8440152  50.8963788  48.4794269
  76.8260152  51.5523788  48.9894269  77.4260152  52.1193788  48.2774269
  76.1780152  52.5153788  49.9474269  75.5420152  53.2053788  49.3934269
  75.5740152  51.9613788  50.6664269  76.9490152  53.0763788  50.4764269
  77.7700152  50.6033788  49.7394269  78.9630152  50.8863788  49.8774269
  77.2420152  49.4813788  50.2154269  76.2540152  49.3083788  50.0974269
  78.0630152  48.4973788  50.9034269  78.5920152  49.0113788  51.7054269
  77.2050152  47.3963788  51.4874269  76.4900152  47.0793788  50.7274269
  77.8530152  46.5593788  51.7484269  76.4510152  47.7973788  52.6974269
  77.1510152  48.1723788  53.4444269  75.7470152  48.5863788  52.4314269
  75.6810152  46.6233788  53.2854269  76.3560152  45.7863788  53.4644269
  74.8920152  46.3133788  52.6004269  75.0690152  47.0973788  54.6114269
  74.3610152  47.8973788  54.3944269  75.8720152  47.4833788  55.2394269
  74.3640152  46.0483788  55.3574269  73.6150152  45.6773788  54.7904269
  75.0100152  45.3073788  55.5884269  73.9820152  46.4383788  56.2074269
  79.0650152  47.8723788  49.9394269  80.2450152  47.7543788  50.2654269
  78.5770152  47.4513788  48.7664269  77.5890152  47.5493788  48.5804269
  79.4330152  46.8573788  47.7534269  79.8570152  45.9313788  48.1414269
  78.8390152  46.6403788  46.8654269  80.5620152  47.8063788  47.3804269
  81.7360152  47.4123788  47.3264269  80.2170152  49.0733788  47.1774269
  79.2510152  49.3463788  47.2884269  81.1970152  50.0723788  46.8004269
  81.7360152  49.6693788  45.9434269  80.5130152  51.3783788  46.3934269
  81.2780152  52.1443788  46.2684269  79.8300152  51.6733788  47.1904269
  79.7360152  51.2703788  45.1184269  79.3800152  52.2673788  44.8574269
  78.8830152  50.6163788  45.3004269  80.6580152  50.6073788  43.6804269
  81.8900152  51.8503788  43.5764269  81.4170152  52.8173788  43.4084269
  82.4560152  51.8793788  44.5074269  82.5630152  51.6263788  42.7484269
  82.2300152  50.3323788  47.8974269  83.4150152  50.5283788  47.5994269
  81.7850152  50.3663788  49.1554269  80.8010152  50.2273788  49.3344269
  82.6930152  50.6013788  50.2844269  83.2070152  51.5543788  50.1564269
  81.9300152  50.6873788  51.6144269  81.3020152  49.8023788  51.7114269
  81.3020152  51.5783788  51.5974269  82.8580152  50.7663788  52.8384269
  83.6050152  51.7333788  53.0154269  82.7970152  49.7523788  53.6914269
  82.1730152  48.9783788  53.5124269  83.3740152  49.7543788  54.5204269
  83.6820152  49.4443788  50.3134269  84.8670152  49.6523788  50.5484269
  83.1930152  48.2413788  50.0044269  82.2100152  48.1513788  49.7914269
  84.0340152  47.0563788  49.9654269  84.4980152  46.9203788  50.9424269
  83.2210152  45.7963788  49.6724269  82.5840152  45.5833788  50.5314269
  82.6000152  45.9763788  48.7954269  84.1010152  44.5893788  49.4064269
  84.6870152  43.8793788  50.4574269  84.4710152  44.1653788  51.4764269
  85.5450152  42.8103788  50.2144269  85.9920152  42.2723788  51.0374269
  85.8220152  42.4393788  48.8974269  86.6550152  41.3843788  48.6194269
  87.0220152  40.9433788  49.3894269  85.2530152  43.1253788  47.8434269
  85.4710152  42.8363788  46.8264269  84.3950152  44.1933788  48.1004269
  83.9490152  44.7253788  47.2734269  85.0970152  47.2543788  48.8944269
  86.2900152  47.1043788  49.1714269  84.6640152  47.6113788  47.6854269
  83.6730152  47.7143788  47.5214269  85.6020152  47.8543788  46.5974269
  86.0820152  46.9023788  46.3684269  84.8970152  48.3413788  45.3264269
  84.2290152  49.1593788  45.5954269  85.6540152  48.7033788  44.6304269
  84.0750152  47.2593788  44.6244269  83.2240152  46.9903788  45.2504269
  83.6020152  47.7963788  43.3174269  82.9900152  48.6823788  43.4884269
  84.4610152  48.0613788  42.7014269  83.0090152  47.0383788  42.8064269
  84.9110152  45.9943788  44.4024269  85.7720152  46.2323788  43.7784269
  85.2540152  45.6123788  45.3634269  84.3020152  45.2383788  43.9074269
  86.6490152  48.8603788  47.0194269  87.8140152  48.6713788  46.7274269
  86.2460152  49.8993788  47.7544269  85.2700152  49.9813788  48.0024269
  87.1910152  50.9243788  48.2084269  87.7180152  51.2963788  47.3304269
  86.4690152  52.1033788  48.8564269  85.7600152  52.5173788  48.1394269
  85.9310152  51.7453788  49.7334269  87.4320152  53.2083788  49.2884269
  88.1150152  53.4043788  48.4624269  87.9960152  52.8493788  50.1494269
  86.7640152  54.5233788  49.6744269  85.5440152  54.6863788  49.4664269
  87.4770152  55.4133788  50.1814269  88.2130152  50.3273788  49.1774269
  89.3990152  50.6433788  49.1194269  87.7470152  49.4543788  50.0574269
  86.7590152  49.2473788  50.0714269  88.6230152  48.7903788  50.9994269
  89.1430152  49.5353788  51.6014269  87.8010152  47.8853788  51.9224269
  88.4410152  47.0763788  52.2764269  86.9710152  47.4683788  51.3514269
  87.2400152  48.6223788  53.1264269  87.7210152  49.7363788  53.4224269
  86.3320152  48.0763788  53.7914269  89.6440152  47.9443788  50.2264269
  90.8060152  47.8543788  50.6034269  89.2120152  47.3783788  49.1074269
  88.2620152  47.5443788  48.8064269  90.0710152  46.5253788  48.3034269
  90.7360152  45.9363788  48.9344269  89.1880152  45.5623788  47.4934269
  88.4860152  45.0963788  48.1844269  88.6380152  46.1533788  46.7614269
  89.8990152  44.4613788  46.7514269  90.7390152  44.8953788  46.2084269
  89.2010152  44.0123788  46.0444269  90.4280152  43.3693788  47.6694269
  89.5910152  42.9063788  48.1924269  91.1090152  43.8133788  48.3954269
  91.1420152  42.3443788  46.9094269  90.7670152  41.4063788  46.9174269
  92.2550152  42.5623788  46.2054269  92.8000152  43.7713788  46.1504269
  92.3590152  44.5463788  46.6254269  93.6560152  43.9163788  45.6344269
  92.8490152  41.5603788  45.5764269  92.4600152  40.6293788  45.6284269
  93.6910152  41.7263788  45.0444269  90.9310152  47.3933788  47.3984269
  91.7550152  46.8963788  46.6404269  90.7640152  48.7043788  47.5314269
  90.1100152  49.0393788  48.2244269  91.4830152  49.6823788  46.7214269
  91.1720152  50.6613788  47.0854269  92.9990152  49.5523788  46.8994269
  93.2730152  48.5063788  46.7624269  93.4880152  50.1593788  46.1374269
  93.4930152  50.0023788  48.2614269  93.1440152  49.2923788  49.0114269
  93.0790152  50.9883788  48.4744269  95.0100152  50.0843788  48.3374269
  95.3820152  50.7103788  47.5264269  95.4340152  49.0843788  48.2484269
  95.3950152  50.6653788  49.6174269  95.4290152  50.0533788  50.4204269
  95.7050152  51.9453788  49.8004269  95.6950152  52.7883788  48.7724269
  95.5030152  52.4473788  47.8414269  95.8800152  53.7703788  48.9224269
  95.9580152  52.3943788  51.0254269  95.9140152  51.7643788  51.8134269
  96.1940152  53.3663788  51.1684269  91.1150152  49.6103788  45.2484269
  91.9340152  49.8833788  44.3834269  89.8620152  49.2893788  44.9664269
  89.2140152  49.1053788  45.7184269  89.4070152  49.1983788  43.5904269
  90.2930152  49.2773788  42.9604269  88.7040152  47.8713788  43.3854269
  89.3200152  47.0743788  43.8024269  87.7430152  47.8943788  43.8994269
  88.4700152  47.5963788  41.9134269  88.0520152  48.4763788  41.4254269
  89.8080152  47.2323788  41.2984269  90.5010152  48.0653788  41.4174269
  90.2100152  46.3513788  41.7984269  89.6740152  47.0193788  40.2374269
  87.4840152  46.4693788  41.7334269  87.8710152  45.5683788  42.2104269
  86.5330152  46.7423788  42.1894269  87.3360152  46.2823788  40.6694269
  88.4710152  50.3453788  43.1714269  87.5030152  50.6253788  43.8504269
  88.7700152  50.9883788  42.0504269  89.5950152  50.7063788  41.5404269
  87.9710152  52.0763788  41.5224269  87.2800152  52.4413788  42.2814269
  88.8950152  53.2783788  41.1194269  89.6950152  52.8723788  40.5004269
  88.1470152  54.3163788  40.3224269  87.7260152  53.8543788  39.4294269
  87.3430152  54.7313788  40.9304269  88.8310152  55.1133788  40.0314269
  89.4760152  53.9363788  42.3544269  88.6680152  54.3393788  42.9654269
  90.0350152  53.1983788  42.9304269  90.1430152  54.7453788  42.0554269
  87.1530152  51.5543788  40.3214269  87.6650152  51.4373788  39.2224269
  85.9640152  51.1473788  40.6504269  85.7130152  51.0843788  41.6264269
  85.0080152  50.7883788  39.6544269  85.4170152  49.8093788  39.4034269
  83.6960152  50.2503788  40.0854269  83.1410152  51.0973788  40.4884269
  83.9090152  49.5413788  40.8854269  82.7790152  49.5633788  39.1674269
  82.0740152  50.1293788  38.1504269  81.3360152  49.2553788  37.5154269
  80.8000152  49.3853788  36.5954269  81.4590152  48.0833788  38.1414269
  80.9960152  47.2163788  37.8514269  82.3390152  48.2603788  39.1894269
  82.6370152  47.4993788  39.8954269  85.1660152  51.3393788  38.2844269
  85.9390152  50.7053788  37.5014269  84.9510152  52.6163788  38.0314269
  84.7310152  53.1843788  38.8374269  84.9840152  53.3103788  36.7904269
  84.7730152  54.2823788  37.2364269  86.2960152  53.6123788  36.1574269
  86.5990152  52.7013788  35.6404269  86.1050152  54.3983788  35.4264269
  87.4830152  54.0563788  36.9394269  87.5850152  53.4203788  37.8184269
  87.3330152  55.0893788  37.2534269  88.7550152  53.9723788  36.1234269
  88.8760152  52.9373788  35.8044269  89.5850152  54.2523788  36.7724269
  88.8180152  54.8033788  34.9494269  88.7030152  55.7953788  35.1024269
  89.0080152  54.4303788  33.6964269  89.1220152  53.1623788  33.3574269
  89.0750152  52.4443788  34.0654269  89.2560152  52.9083788  32.3894269
  89.0730152  55.3593788  32.7444269  88.9770152  56.3353788  32.9844269
  89.2180152  55.0873788  31.7824269  83.8210152  53.1593788  35.8544269
  83.5800152  53.9733788  34.9204269  82.7630152  52.3953788  36.1834269
  82.7940152  51.8533788  37.0354269  81.5810152  52.3293788  35.3484269
  81.3770152  53.3223788  34.9474269  81.8260152  51.3803788  34.1624269
  81.9040152  50.3623788  34.5434269  82.7630152  51.6613788  33.6814269
  80.7140152  51.4243788  33.1204269  80.0180152  52.4543788  33.0094269
  80.5280152  50.4203788  32.4064269  80.3480152  51.9193788  36.1674269
  79.5830152  51.0213788  35.7884269  80.1570152  52.6053788  37.2894269
  80.8110152  53.3343788  37.5374269  79.0310152  52.3353788  38.1714269
  78.8680152  51.2593788  38.2414269  79.3120152  52.8803788  39.5784269
  80.1960152  52.3683788  39.9574269  79.5220152  53.9453788  39.4814269
  78.2000152  52.7223788  40.6284269  77.3660152  53.3733788  40.3644269
  77.6530152  51.2833788  40.6574269  77.2580152  51.0253788  39.6754269
  78.4560152  50.5943788  40.9184269  76.8580152  51.2113788  41.3994269
  78.7470152  53.1203788  41.9844269  79.5800152  52.4683788  42.2454269
  79.0920152  54.1533788  41.9484269  77.9620152  53.0253788  42.7344269
  77.8120152  53.0273788  37.6024269  77.8290152  54.2323788  37.4104269
  76.7300152  52.2743788  37.4364269  76.7670152  51.2993788  37.6984269
  75.4950152  52.8093788  36.8904269  75.1860152  53.7233788  37.3974269
  75.6900152  53.1383788  35.4424269  76.4580152  53.9053788  35.3444269
  76.0000152  52.2423788  34.9044269  74.7530152  53.5073788  35.0244269
  74.4480152  51.7193788  37.0594269  74.8100152  50.5573788  37.2624269
  73.1610152  52.0733788  36.9964269  72.9110152  53.0363788  36.8244269
  72.1090152  51.0633788  37.1774269  72.2470152  50.6943788  38.1934269
  70.6990152  51.6933788  37.0424269  70.6020152  52.5213788  37.7454269
  70.5620152  52.0623788  36.0254269  69.9420152  50.9403788  37.2614269
  72.2400152  49.8323788  36.2764269  71.9210152  48.7173788  36.6944269
  72.7270152  50.0253788  35.0504269  72.9970152  50.9553788  34.7624269
  72.9020152  48.8933788  34.1034269  71.9600152  48.3473788  34.0384269
  73.2690152  49.3923788  32.6934269  73.2140152  48.5613788  31.9884269
  72.5610152  50.1483788  32.3944269  74.6640152  50.0113788  32.6364269
  75.4220152  49.2523788  32.8144269  74.7520152  50.7833788  33.4014269
  74.9260152  50.6433788  31.2544269  73.9860152  50.7123788  30.7074269
  75.6240152  50.0163788  30.6994269  75.4960152  51.9833788  31.4064269
  74.8820152  52.7753788  31.2824269  76.7690152  52.2233788  31.6974269
  77.6250152  51.2163788  31.8394269  78.5690152  51.3963788  32.1504269
  77.3310152  50.2713788  31.6364269  77.1580152  53.4583788  31.9644269
  76.4880152  54.2143788  31.9464269  78.1250152  53.6463788  32.1864269
  73.9500152  47.8703788  34.5694269  73.9240152  46.7233788  34.1304269
  74.8620152  48.3103788  35.4454269  74.7280152  49.2533788  35.8084269
  75.9710152  47.5243788  36.0004269  76.0450152  46.5943788  35.4324269
  77.2990152  48.2773788  35.7944269  78.0950152  47.7673788  36.3404269
  77.2110152  49.2853788  36.1984269  77.7570152  48.3603788  34.3394269
  77.3010152  47.6633788  33.4474269  78.7400152  49.1883788  34.0864269
  79.2270152  49.2253788  33.1874269  79.0600152  49.8193788  34.8204269
  75.7140152  47.0863788  37.4594269  76.6400152  46.7253788  38.1914269
  74.4370152  47.0663788  37.8614269  73.7370152  47.4053788  37.2094269
  73.9410152  46.4083788  39.0774269  74.7770152  45.9623788  39.6144269
  73.2370152  47.4013788  40.0274269  72.4190152  47.8403788  39.4564269
  72.6880152  46.7613788  41.2954269  71.9730152  45.9823788  41.0294269
  73.5070152  46.3233788  41.8654269  72.1900152  47.5203788  41.8994269
  74.2270152  48.4853788  40.4184269  75.0440152  48.0433788  40.9894269
  74.6250152  48.9553788  39.5194269  73.7230152  49.2353788  41.0274269
  73.0070152  45.2963788  38.6244269  72.1340152  45.5173788  37.7844269
  73.2100152  44.0963788  39.1614269  73.9110152  44.0073788  39.8984269
  72.3950152  42.9283788  38.8424269  71.7490152  43.1503788  37.9944269
  73.2780152  41.7443788  38.4464269  73.8620152  41.4453788  39.3184269
  72.6200152  40.9293788  38.1644269  74.2380152  42.0023788  37.2794269
  74.9110152  42.8063788  37.5564269  75.0540152  40.7373788  37.0284269
  75.6230152  40.4763788  37.9184269  74.3800152  39.9203788  36.7754269
  75.7460152  40.9033788  36.2064269  73.5170152  42.3703788  35.9774269
  72.7660152  41.6193788  35.7324269  73.0310152  43.3383788  36.0874269
  74.2330152  42.4413788  35.1584269  71.4820152  42.5703788  40.0074269
  71.7840152  42.8663788  41.1644269  70.3800152  41.8873788  39.7124269
  70.1690152  41.6853788  38.7364269  69.3860152  41.5193788  40.7124269
  69.6800152  42.0033788  41.6524269  67.9940152  42.0263788  40.2694269
  67.6990152  41.4783788  39.3754269  66.9530152  41.7733788  41.3614269
  66.9190152  40.7093788  41.5954269  67.2290152  42.3333788  42.2554269
  65.9680152  42.0933788  41.0224269  67.9700152  43.5133788  39.8994269
  68.3260152  44.0923788  40.7404269  68.6050152  43.7033788  39.0334269
  66.9530152  43.8183788  39.6514269  69.3790152  40.0093788  40.9474269
  69.0540152  39.2423788  40.0374269  69.7400152  39.5713788  42.1664269
  70.0840152  40.2353788  42.8454269  69.6860152  38.1453788  42.5264269
  69.9680152  37.5303788  41.6714269  70.6200152  37.8163788  43.7054269
  71.6420152  37.8433788  43.3354269  70.5090152  38.6023788  44.4524269
  70.2940152  36.4713788  44.3594269  69.7130152  36.6503788  45.2644269
  69.7060152  35.8733788  43.6624269  71.5450152  35.7063788  44.7254269
  72.3950152  36.0213788  44.1194269  71.3880152  34.6513788  44.5024269
  71.8910152  35.8463788  46.1724269  71.3400152  36.6843788  46.6004269
  72.9610152  36.0243788  46.2764269  71.5260152  34.6043788  46.8754269
  70.5340152  34.4413788  46.7774269  72.0360152  33.8293788  46.4764269
  71.7580152  34.6913788  47.8544269  68.2550152  37.8113788  42.8624269
  67.7130152  36.7913788  42.4354269  67.6750152  38.7143788  43.6544269
  68.2520152  39.4843788  43.9624269  66.2920152  38.7053788  44.1224269
  65.6710152  38.1493788  43.4204269  66.1300152  38.0533788  45.5164269
  65.0640152  37.9703788  45.7284269  66.7330152  36.6643788  45.5464269
  66.2500152  36.0423788  44.7924269  67.8010152  36.7273788  45.3364269
  66.5820152  36.2233788  46.5314269  66.7620152  38.8673788  46.5084269
  67.6960152  38.9173788  46.2904269  65.9460152  40.1863788  44.3004269
  66.8410152  41.0273788  44.4284269  64.6490152  40.5283788  44.3144269
  63.4750152  39.6643788  44.1074269  63.6690152  38.9043788  43.3504269
  63.1670152  39.1823788  45.0354269  62.4480152  40.6573788  43.6384269
  62.6000152  40.9253788  42.5924269  61.4350152  40.2783788  43.7734269
  62.7290152  41.8273788  44.5574269  62.3930152  41.6223788  45.5734269
  62.2540152  42.7383788  44.1944269  64.2470152  41.9293788  44.4874269
  64.5980152  42.5843788  43.6904269  64.8460152  42.5423788  45.7694269
  65.0470152  43.7563788  45.8474269  65.1650152  41.6943788  46.7464269
  64.9860152  40.7083788  46.6184269  65.7640152  42.1473788  47.9924269
  65.5890152  43.2233788  47.9994269  65.0760152  41.4953788  49.2114269
  65.7720152  41.5503788  50.0484269  64.1870152  42.0833788  49.4394269
  64.6420152  40.0433788  49.0714269  64.5630152  39.6093788  50.0684269
  65.4030152  39.5093788  48.5024269  63.2930152  39.8703788  48.3584269
  63.1780152  39.0813788  47.4294269  62.2710152  40.5943788  48.8134269
  62.4080152  41.2343788  49.5824269  61.3590152  40.5033788  48.3894269
  67.3030152  41.9933788  48.0874269  67.9080152  42.2873788  49.1234269
  67.9490152  41.6183788  46.9914269  67.4400152  41.4623788  46.1334269
  69.3950152  41.4313788  47.0274269  69.8100152  42.1463788  47.7374269
  69.7050152  39.9903788  47.4834269  69.3900152  39.3073788  46.6944269
  69.1340152  39.7883788  48.3894269  71.1530152  39.7363788  47.7744269
  71.6070152  38.5653788  48.3414269  72.9180152  38.6233788  48.4954269
  73.5420152  37.8473788  48.9144269  73.3340152  39.7953788  48.0474269
  74.2920152  40.1143788  48.0434269  72.2550152  40.5083788  47.5894269
  72.2780152  41.4993788  47.1614269  70.0630152  41.7283788  45.6754269
  69.9350152  40.9463788  44.7304269  70.7620152  42.8553788  45.5874269
  70.8140152  43.4653788  46.3904269  71.4590152  43.2353788  44.3544269
  71.1940152  42.4803788  43.6144269  71.0090152  44.6233788  43.8264269
  71.4840152  44.7953788  42.8604269  69.4990152  44.6463788  43.6374269
  69.2090152  43.8633788  42.9364269  69.0100152  44.4753788  44.5964269
  69.1970152  45.6173788  43.2434269  71.4570152  45.7433788  44.7724269
  70.9970152  45.5983788  45.7504269  72.5420152  45.7203788  44.8744269
  71.1500152  46.7073788  44.3654269  72.9840152  43.2483788  44.5554269
  73.4640152  43.2773788  45.6974269  73.7290152  43.2203788  43.4424269
  73.2540152  43.1983788  42.5514269  75.2030152  43.2193788  43.4444269
  75.4910152  43.6823788  44.3884269  75.7570152  41.7993788  43.3344269
  75.5330152  41.4323788  42.3384269  76.8370152  41.8523788  43.4704269
  75.2150152  40.7933788  44.3254269  75.3310152  41.1803788  45.3374269
  74.1590152  40.6153788  44.1234269  75.9800152  39.4993788  44.1884269
  76.9670152  39.6253788  44.6334269  76.0900152  39.2493788  43.1314269
  75.2770152  38.3513788  44.8764269  74.3300152  38.1543788  44.3734269
  75.0870152  38.6153788  45.9164269  76.1350152  37.1173788  44.8244269
  75.7070152  36.3653788  44.2884269  76.9970152  37.3263788  44.3404269
  76.3420152  36.8113788  45.7644269  75.7830152  44.0043788  42.2794269
  75.2170152  44.0393788  41.1854269  76.9530152  44.5823788  42.5034269
  77.3830152  44.4833788  43.4114269  77.6390152  45.3583788  41.4764269
  76.8950152  45.9253788  40.9174269  78.6330152  46.3223788  42.1234269
  79.3630152  45.7363788  42.6824269  79.3400152  47.1213788  41.0754269
  79.8640152  46.4483788  40.3974269  78.6130152  47.7083788  40.5144269
  80.0580152  47.7893788  41.5504269  77.9080152  47.2693788  43.0764269
  77.2670152  47.9313788  42.4944269  77.2960152  46.6803788  43.7594269
  78.8660152  48.1043788  43.8804269  79.5030152  47.4523788  44.4774269
  79.4840152  48.6983788  43.2074269  78.3050152  48.7673788  44.5394269
  78.3260152  44.3683788  40.5024269  78.8380152  43.3403788  40.9534269
  78.3820152  44.6733788  39.1934269  77.9360152  45.5353788  38.8754269
  79.0040152  43.8193788  38.1524269  79.6890152  43.1263788  38.6404269
  77.9250152  42.9613788  37.4624269  77.2330152  42.6103788  38.2264269
  77.1040152  43.7033788  36.3954269  76.4200152  44.3923788  36.8834269
  77.7270152  44.2683788  35.7104269  76.5340152  43.0003788  35.7954269
  78.5350152  41.8103788  36.9094269  77.8460152  41.1783788  36.6774269
  79.8500152  44.6143788  37.1384269  80.0650152  45.8123788  37.3334269
  80.2780152  43.9713788  36.0344269  79.9770152  43.0043788  35.9274269
  80.8870152  44.6773788  34.8864269  81.2520152  43.8793788  34.2374269
  79.8530152  45.4183788  34.0044269  80.3590152  46.2103788  33.4494269
  79.1070152  45.8933788  34.6414269  79.1740152  44.5103788  32.9714269
  79.9070152  44.0633788  32.0514269  77.9610152  44.2373788  33.1154269
  82.1680152  45.4763788  35.1894269  82.2110152  46.7133788  35.1984269
  83.2560152  44.7383788  35.4224269  83.1780152  43.7313788  35.4194269
  84.5300152  45.3263788  35.8264269  84.2990152  46.2663788  36.3244269
  85.1750152  44.5033788  36.9064269  85.3870152  43.4993788  36.5354269
  86.0790152  45.0503788  37.1364269  84.4370152  44.4513788  38.2044269
  84.7410152  45.3943788  39.2004269  85.4830152  46.1633788  39.0434269
  83.9990152  45.3893788  40.3744269  84.1650152  46.1523788  41.1204269
  83.0150152  44.4123788  40.5824269  82.4720152  44.4093788  41.4994269
  82.7290152  43.4493788  39.6054269  81.9590152  42.7083788  39.7714269
  83.4420152  43.4763788  38.4004269  83.2160152  42.7603788  37.6234269
  85.4910152  45.7253788  34.7004269  86.7010152  45.9223788  34.9004269
  84.9360152  45.8123788  33.4904269  83.9340152  45.7103788  33.4204269
  85.6920152  46.0503788  32.2754269  86.3110152  45.1773788  32.0584269
  84.9960152  46.1973788  31.4504269  86.5920152  47.2793788  32.3694269
  87.6030152  47.3003788  31.6864269  86.2890152  48.2623788  33.2034269
  85.4700152  48.1843788  33.7894269  87.1180152  49.4503788  33.2854269
  87.9240152  49.3433788  32.5594269  86.2610152  50.6783788  32.9624269
  85.3460152  50.5803788  33.5474269  86.8220152  51.5473788  33.3074269
  85.8260152  50.9833788  31.5164269  86.7130152  51.3353788  30.9894269
  85.3260152  49.7733788  30.7664269  86.1000152  49.0063788  30.7564269
  84.4350152  49.3833788  31.2584269  85.0810152  50.0563788  29.7424269
  84.7350152  52.0403788  31.5384269  83.8660152  51.6543788  32.0724269
  85.1040152  52.9333788  32.0424269  84.4520152  52.2913788  30.5164269
  87.7800152  49.6173788  34.6464269  88.4920152  50.6133788  34.8794269
  87.5720152  48.6443788  35.5374269  87.0260152  47.8383788  35.2684269
  88.1190152  48.7183788  36.9004269  87.8160152  49.6933788  37.2834269
  87.5410152  47.5963788  37.7604269  86.4530152  47.6553788  37.7514269
  87.8560152  46.6323788  37.3604269  87.9020152  47.7003788  38.7834269
  89.6360152  48.6963788  36.9764269  90.2810152  47.9133788  36.2864269
  90.2020152  49.5453788  37.8294269  89.6100152  50.1573788  38.3724269
  91.6530152  49.6243788  38.0104269  92.0980152  48.7853788  37.4754269
  92.1940152  50.9483788  37.4514269  91.7170152  51.7623788  37.9964269
  93.2690152  50.9733788  37.6294269  91.9570152  51.1833788  35.9454269
  90.8990152  51.0413788  35.7274269  92.2460152  52.2043788  35.6964269
  92.7710152  50.2183788  35.0954269  92.4790152  49.1993788  35.3494269
  93.8280152  50.3603788  35.3224269  92.5620152  50.4273788  33.5964269
  93.3260152  49.8683788  33.0564269  92.6640152  51.4893788  33.3744269
  91.2130152  49.9673788  33.1314269  91.1060152  48.9833788  33.3314269
  90.4950152  50.4893788  33.6134269  91.1300152  50.1203788  32.1364269
  92.0140152  49.5463788  39.4914269  91.3700152  50.1923788  40.3104269
  93.0140152  48.7323788  39.8434269  93.4680152  48.1753788  39.1334269
  93.4700152  48.6273788  41.2364269  92.6170152  48.7813788  41.8974269
  94.0470152  47.2413788  41.5404269  94.9230152  47.0973788  40.9084269
  94.3480152  47.2263788  42.5874269  93.1020152  46.0623788  41.3074269
  92.1140152  46.3233788  41.6884269  93.0290152  45.7773788  39.8134269
  92.6670152  46.6633788  39.2914269  94.0210152  45.5183788  39.4444269
  92.3460152  44.9463788  39.6354269  93.5690152  44.8213788  42.0544269
  94.5570152  44.5323788  41.6964269  93.6170152  45.0363788  43.1214269
  92.8670152  44.0063788  41.8794269  94.5460152  49.6883788  41.4694269
  95.4790152  49.8053788  40.6774269  94.4080152  50.4793788  42.5284269
  93.6160152  50.3533788  43.1424269  95.3780152  51.5243788  42.8184269
  95.7950152  51.8513788  41.8654269  94.7180152  52.7053788  43.5184269
  94.4220152  52.3583788  44.5084269  95.4810152  53.4773788  43.6174269
  93.4910152  53.3753788  42.9024269  92.6620152  52.6673788  42.8934269
  93.1050152  54.5993788  43.7534269  92.8870152  54.2793788  44.7724269
  93.9320152  55.3093788  43.7644269  92.2230152  55.0753788  43.3254269
  93.7560152  53.7763788  41.4684269  94.5820152  54.4863788  41.4364269
  94.0140152  52.8923788  40.8854269  92.8620152  54.2393788  41.0494269
  96.4800152  50.9963788  43.7124269  96.2530152  50.0893788  44.5134269
  97.6650152  51.5923788  43.5934269  97.7800152  52.3383788  42.9224269
  98.7950152  51.1873788  44.4114269  98.9590152  50.1193788  44.2704269
  99.6760152  51.7373788  44.0804269  98.5890152  51.4523788  45.8934269
  97.4750152  51.7263788  46.3464269  99.6620152  51.3303788  46.6634269
 100.5470152  51.0753788  46.2504269  99.5770152  51.5603788  48.0964269
  98.6480152  51.1313788  48.4724269 100.7400152  50.8853788  48.8124269
 100.7160152  49.8133788  48.6144269 101.6800152  51.3003788  48.4494269
 100.6560152  51.0583788  49.8854269  99.5870152  53.0523788  48.3694269
  98.7710152  53.5573788  49.1364269 100.5220152  53.7523788  47.7404269
 101.1650152  53.2783788  47.1224269 100.6370152  55.1903788  47.9244269
 100.0530152  55.4823788  48.7974269 102.1040152  55.5803788  48.1694269
 102.6650152  55.3763788  47.2574269 102.1380152  56.6483788  48.3854269
 102.7910152  54.8383788  49.3264269 103.7930152  55.2483788  49.4544269
 102.8610152  53.7813788  49.0674269 102.0420152  54.9653788  50.6514269
 101.9370152  56.0963788  51.1844269 101.5620152  53.9253788  51.1604269
 100.0850152  55.9203788  46.7044269 100.4040152  57.0873788  46.4634269
  99.2690152  55.2123788  45.9274269  99.0680152  54.2543788  46.1774269
  98.6540152  55.7703788  44.7274269  99.2620152  56.5763788  44.3174269
  98.5360152  54.6833788  43.6594269  99.4300152  54.0613788  43.7124269
  97.6590152  54.0793788  43.8904269  98.3980152  55.1843788  42.2364269
  99.3110152  55.7123788  41.9604269  97.5520152  55.8703788  42.1864269
  98.1690152  54.0513788  41.2464269  99.1180152  53.2913788  40.9594269
  97.0320152  53.9153788  40.7574269  97.2730152  56.3203788  45.1124269
  96.4620152  55.6183788  45.7214269  97.0170152  57.5793788  44.7644269
  97.7140152  58.0953788  44.2474269  95.7570152  58.2383788  45.1084269
  95.3100152  57.6223788  45.8894269  96.0360152  59.6633788  45.5944269
  95.0910152  60.1213788  45.8864269  96.6970152  59.6113788  46.4594269
  96.6960152  60.5433788  44.5274269  97.6060152  60.0513788  44.1834269
  96.0050152  60.6553788  43.6914269  97.0590152  61.9283788  45.0474269
  97.7770152  61.8253788  45.8614269  96.1570152  62.4153788  45.4184269
  97.6780152  62.7963788  43.9424269  97.9340152  63.7653788  44.3704269
  96.9350152  62.9313788  43.1564269  98.9150152  62.2103788  43.3274269
  99.6160152  62.0773788  44.0424269  98.6920152  61.3203788  42.9054269
  99.2700152  62.8383788  42.6204269  94.7510152  58.3063788  43.9734269
  93.5550152  58.4133788  44.2124269  95.2340152  58.2773788  42.7374269
  96.2290152  58.1903788  42.5904269  94.3410152  58.3703788  41.5934269
  93.4340152  57.8403788  41.8854269  94.0370152  59.8413788  41.2774269
  93.4180152  59.8743788  40.3814269  93.4830152  60.2603788  42.1174269
  95.2620152  60.7133788  41.0374269  95.6810152  60.4633788  40.0624269
  95.9970152  60.5013788  41.8134269  94.9450152  62.2093788  41.0624269
  94.2370152  62.6573788  41.9964269  95.4160152  62.9383788  40.1574269
  94.8560152  57.6863788  40.3474269  96.0560152  57.4813788  40.1844269
  93.9260152  57.3393788  39.4684269  92.9570152  57.5323788  39.6794269
  94.2530152  56.6943788  38.2194269  95.2880152  56.3553788  38.2654269
  93.3560152  55.4793788  37.9894269  93.6460152  54.6953788  38.6894269
  92.3220152  55.7703788  38.1774269  93.4540152  54.9313788  36.5844269
  94.5080152  54.0933788  36.2054269  95.2520152  53.8093788  36.9354269
  94.6120152  53.6163788  34.8904269  95.4300152  52.9713788  34.6064269
  93.6490152  53.9833788  33.9554269  93.7270152  53.5283788  32.6634269
  94.5240152  53.7803788  32.1924269  92.5950152  54.8123788  34.3154269
  91.8500152  55.0923788  33.5854269  92.5050152  55.2793788  35.6204269
  91.6840152  55.9253788  35.8954269  94.1000152  57.6783788  37.0724269
  93.0950152  58.3753788  36.9694269  95.0950152  57.6883788  36.1894269
  95.8720152  57.0583788  36.3294269  95.1120152  58.5683788  35.0294269
  94.3710152  59.3613788  35.1254269  96.4890152  59.2223788  34.9064269
  96.4350152  59.9993788  34.1444269  97.2060152  58.4613788  34.5994269
  96.9720152  59.8423788  36.1844269  96.9650152  61.2043788  36.4004269
  96.6760152  61.9003788  35.7284269  97.3960152  61.4563788  37.6244269
  97.4950152  62.4353788  38.0704269  97.6850152  60.3063788  38.2094269
  98.0350152  60.1983788  39.1504269  97.4320152  59.2813788  37.3294269
  97.5730152  58.2273788  37.5154269  94.8040152  57.7233788  33.8074269
  95.6040152  56.8823788  33.4144269  93.6310152  57.9433788  33.2224269
  93.0300152  58.6633788  33.5974269  93.1770152  57.1863788  32.0594269
  93.4800152  56.1563788  32.2484269  91.6740152  57.2883788  31.9304269
  91.2060152  56.9483788  32.8544269  91.3950152  58.3253788  31.7424269
  91.3370152  56.6653788  31.1024269  93.8430152  57.5623788  30.7454269
  94.7080152  58.4363788  30.7014269  93.4020152  56.9063788  29.6744269
  92.6630152  56.2273788  29.7914269  93.9420152  57.1283788  28.3414269
  94.5160152  58.0543788  28.3714269  94.8800152  55.9663788  27.9504269
  95.2620152  56.1713788  26.9504269  95.7070152  55.9553788  28.6604269
  94.2540152  54.5463788  27.9344269  95.0050152  53.8463788  27.5684269
  93.4030152  54.5563788  27.2534269  93.7660152  54.0543788  29.3064269
  94.5810152  54.0393788  30.2534269  92.5760152  53.6763788  29.4374269
  92.8500152  57.3393788  27.2874269  92.4130152  58.4663788  27.0614269
  92.3940152  56.2523788  26.6724269  92.7660152  55.3493788  26.9294269
  91.3740152  56.3303788  25.6404269  91.7250152  57.0333788  24.8854269
  91.2800152  55.3383788  25.1974269  89.9860152  56.7733788  26.0654269
  89.6220152  56.7243788  27.2474269  89.2060152  57.2013788  25.0754269
  89.5660152  57.2073788  24.1314269  87.8490152  57.6603788  25.3184269
  87.7730152  57.9743788  26.3594269  87.6510152  58.5113788  24.6664269
  86.7930152  56.6003788  25.0584269  86.2700152  56.4723788  23.9474269
  86.4660152  55.8463788  26.0984269  86.9210152  56.0043788  26.9864269
  85.4680152  54.7993788  25.9874269  84.8100152  55.0273788  25.1484269
  86.1520152  53.4513788  25.7274269  85.3860152  52.6763788  25.7304269
  86.6230152  53.4933788  24.7454269  87.2230152  53.0673788  26.7534269
  88.0750152  53.7383788  26.6464269  86.8070152  53.1663788  27.7564269
  87.6920152  51.6283788  26.5474269  88.1280152  51.5383788  25.5524269
  86.8330152  50.9623788  26.6294269  88.7360152  51.2203788  27.5834269
  88.3660152  51.4743788  28.5764269  89.6590152  51.7673788  27.3894269
  89.0230152  49.7523788  27.5334269  88.1730152  49.2373788  27.7124269
  89.3780152  49.5093788  26.6194269  89.7120152  49.5203788  28.2344269
  84.6200152  54.7333788  27.2534269  83.9540152  53.7293788  27.5154269
  84.6400152  55.8153788  28.0254269  85.1940152  56.6113788  27.7424269
  83.8830152  55.8833788  29.2714269  83.6330152  54.8603788  29.5534269
  84.7360152  56.5323788  30.3974269  84.8130152  57.6003788  30.1924269
  84.0720152  56.3463788  31.7564269  83.0780152  56.7943788  31.7394269
  83.9870152  55.2823788  31.9764269  84.6760152  56.8293788  32.5244269
  86.1230152  55.9263788  30.4174269  86.0500152  54.8583788  30.6224269
  86.6000152  56.0783788  29.4494269  86.7180152  56.4053788  31.1954269
  82.5770152  56.6693788  29.0964269  82.5370152  57.6533788  28.3594269
  81.4730152  56.1863788  29.7004269  81.3430152  54.9003788  30.4014269
  81.2320152  54.0743788  29.6984269  82.2000152  54.7133788  31.0484269
  80.0950152  55.1093788  31.1974269  79.6520152  54.1583788  31.4914269
  80.2910152  55.7093788  32.0864269  79.2230152  55.8333788  30.2454269
  78.4030152  56.3283788  30.7654269  78.8200152  55.1563788  29.4924269
  80.1680152  56.8533788  29.6154269  79.8510152  57.1223788  28.6074269
  80.2240152  58.1743788  30.3874269  80.3990152  58.2093788  31.6104269
  80.0840152  59.2533788  29.6304269  79.8990152  59.1193788  28.6464269
  80.1800152  60.6163788  30.1254269  81.1100152  60.6203788  30.6944269
  80.2140152  61.5983788  28.9254269  79.2540152  61.5643788  28.4114269
  80.4690152  63.0323788  29.4114269  79.6750152  63.3303788  30.0954269
  81.4280152  63.0763788  29.9274269  80.4850152  63.7083788  28.5564269
  81.3510152  61.1833788  27.9754269  82.2280152  61.7843788  28.2164269
  81.5720152  60.1313788  28.1544269  81.0560152  61.3563788  26.4914269
  80.2000152  60.7403788  26.2164269  80.8310152  62.4023788  26.2854269
  81.9260152  61.0503788  25.9104269  79.1580152  61.0753788  31.1524269
  79.5120152  61.7663788  32.1164269  77.9070152  60.6653788  30.9704269
  77.6940152  60.0553788  30.1944269  76.8430152  61.0763788  31.8644269
  77.0540152  62.1293788  32.0524269  75.4990152  60.8953788  31.1804269
  75.4240152  59.8703788  30.8164269  74.7070152  61.0823788  31.9054269
  75.3240152  61.8553788  29.9964269  75.3870152  62.8823788  30.3554269
  76.1160152  61.6753788  29.2694269  73.9810152  61.6423788  29.3324269
  73.1940152  61.9313788  30.0284269  73.8750152  60.5873788  29.0814269
  73.8420152  62.4613788  28.0694269  74.6710152  62.2313788  27.4004269
  73.8640152  63.5203788  28.3254269  72.5470152  62.1483788  27.3754269
  72.5220152  61.1673788  27.1364269  71.7750152  62.3653788  27.9894269
  72.4740152  62.7023788  26.5334269  76.8370152  60.5103788  33.2874269
  75.9120152  60.7793788  34.0604269  77.8640152  59.7323788  33.6304269
  78.5740152  59.5263788  32.9424269  77.9930152  59.1713788  34.9644269
  77.1650152  59.5743788  35.5474269  77.9240152  57.6603788  34.9354269
  78.4850152  57.3103788  34.0684269  78.3880152  57.2813788  35.8454269
  76.5800152  57.1193788  34.8534269  75.8630152  56.6113788  35.8804269
  76.1990152  56.5613788  36.9054269  74.6340152  56.1643788  35.4254269
  73.9170152  55.7413788  35.9974269  74.5460152  56.3873788  34.0754269
  73.5080152  56.0973788  33.1724269  72.5860152  55.6463788  33.5074269
  73.7080152  56.4083788  31.8464269  72.9290152  56.1963788  31.1294269
  74.9100152  56.9983788  31.4064269  75.0400152  57.2253788  30.3584269
  75.9480152  57.2973788  32.3194269  76.8650152  57.7553788  31.9794269
  75.7630152  56.9873788  33.6734269  79.3090152  59.5533788  35.5944269
  79.5880152  59.1513788  36.7244269  80.1240152  60.3313788  34.8924269
  79.8470152  60.6723788  33.9834269  81.4150152  60.6853788  35.4444269
  81.4670152  60.0163788  36.3034269  82.5420152  60.4073788  34.4354269
  82.7560152  59.3393788  34.4644269  83.4210152  60.9623788  34.7614269
  82.2690152  60.7843788  32.9824269  82.5550152  61.8253788  32.8294269
  81.2040152  60.6673788  32.7834269  83.2150152  59.7283788  31.8024269
  84.8760152  60.3553788  32.0244269  84.9010152  61.4153788  31.7724269
  85.1790152  60.2223788  33.0634269  85.5600152  59.8103788  31.3734269
  81.6000152  62.0243788  36.1114269  80.9790152  63.0153788  35.7464269
  82.4510152  62.0253788  37.1304269  82.8890152  61.1563788  37.4004269
  82.7730152  63.2313788  37.8694269  81.8950152  63.6053788  38.3964269
  83.8510152  62.9433788  38.8974269  83.4890152  62.1963788  39.6034269
  84.7420152  62.5663788  38.3944269  84.0970152  63.8603788  39.4324269
  83.2810152  64.2463788  36.8654269  83.6960152  63.8703788  35.7814269
  83.2230152  65.5283788  37.2234269  82.8490152  65.7663788  38.1314269
  83.6830152  66.6013788  36.3454269  83.1460152  66.5273788  35.3994269
  83.4010152  67.9633788  36.9724269  82.3370152  68.0113788  37.2034269
  83.9770152  68.0323788  37.8954269  83.7500152  69.1803788  36.1084269
  84.7830152  69.1023788  35.7694269  82.8480152  69.2253788  34.8684269
  82.9860152  68.3143788  34.2854269  81.8060152  69.3033788  35.1794269
  83.1110152  70.0893788  34.2584269  83.6020152  70.4563788  36.9404269
  82.5720152  70.5473788  37.2864269  84.2710152  70.4093788  37.7994269
  83.8580152  71.3213788  36.3284269  85.1800152  66.4623788  36.0994269
  85.6310152  66.5293788  34.9614269  85.9400152  66.2413788  37.1724269
  85.5000152  66.1753788  38.0784269  87.3890152  66.0923788  37.0774269
  87.7690152  66.9973788  36.6044269  88.0330152  65.9733788  38.4674269
  89.1130152  66.0423788  38.3404269  87.6830152  66.8123788  39.0694269
  87.7350152  64.6873788  39.2404269  88.5580152  64.5073788  39.9324269
  87.6750152  63.8663788  38.5264269  86.4290152  64.7193788  40.0454269
  85.5920152  65.6283788  39.8474269  86.2370152  63.8023788  40.8754269
  87.7870152  64.9053788  36.1904269  88.8980152  64.8593788  35.6674269
  86.8820152  63.9513788  36.0164269  85.9850152  64.0163788  36.4764269
  87.1780152  62.8223788  35.1704269  88.1650152  62.4343788  35.4214269
  86.1600152  61.6933788  35.3864269  86.3250152  60.9183788  34.6384269
  85.1530152  62.0963788  35.2764269  86.2910152  61.1203788  36.6854269
  87.1830152  60.7723788  36.7604269  87.1500152  63.2793788  33.7224269
  88.0600152  62.9753788  32.9534269  86.1190152  64.0423788  33.3674269
  85.4390152  64.2923788  34.0714269  85.9250152  64.5373788  32.0004269
  86.0330152  63.6633788  31.3584269  84.5250152  65.1773788  31.8304269
  84.4540152  66.0213788  32.5164269  84.3350152  65.6873788  30.4084269
  85.1100152  66.4183788  30.1774269  84.4040152  64.8523788  29.7104269
  83.3550152  66.1563788  30.3184269  83.4280152  64.1683788  32.1734269
  83.4850152  63.3413788  31.4664269  83.6030152  63.7963788  33.1824269
  82.0300152  64.7603788  32.1124269  81.9500152  65.5773788  32.8294269
  81.8390152  65.1373788  31.1074269  81.2980152  63.9903788  32.3564269
  86.9540152  65.5813788  31.6024269  87.3260152  65.6983788  30.4364269
  87.3970152  66.3473788  32.5844269  87.0590152  66.1923788  33.5234269
  88.3540152  67.4003788  32.3414269  88.2170152  67.6933788  31.3004269
  88.0740152  68.5903788  33.2734269  87.8080152  68.1793788  34.2474269
  89.0020152  69.1553788  33.3594269  86.9690152  69.5913788  32.8874269
  86.8370152  70.2763788  33.7244269  87.3830152  70.3613788  31.6504269
  88.3230152  70.8793788  31.8424269  87.5130152  69.6693788  30.8184269
  86.6110152  71.0893788  31.4004269  85.6440152  68.9053788  32.6434269
  85.7430152  68.2113788  31.8094269  85.3480152  68.3583788  33.5384269
  84.8860152  69.6523788  32.4064269  89.8100152  66.9703788  32.4484269
  90.6520152  67.4613788  31.6924269  90.1170152  66.0623788  33.3704269
  89.3870152  65.6703788  33.9474269  91.4990152  65.6253788  33.5574269
  92.0330152  66.0603788  32.7124269  92.0250152  66.1293788  34.9084269
  93.0730152  65.8433788  34.9944269  91.4510152  65.6473788  35.6994269
  91.9260152  67.6133788  35.0944269  91.4650152  68.4643788  34.1144269
  91.1290152  68.1613788  33.1334269  91.4970152  69.7073788  34.5594269
  91.1940152  70.5843788  34.0074269  91.9630152  69.6943788  35.7964269
  92.2380152  68.3983788  36.1564269  92.6290152  68.0663788  37.1064269
  91.7510152  64.1173788  33.4674269  92.8790152  63.6643788  33.6744269
  90.7200152  63.3433788  33.1464269  89.8270152  63.7713788  32.9494269
  90.8430152  61.8863788  33.0704269  89.8480152  61.5023788  32.8464269
  91.7990152  61.4553788  31.9474269  92.7330152  62.0033788  32.0744269
  91.9860152  60.3873788  32.0584269  91.3020152  61.6983788  30.5254269
  91.0610152  62.7543788  30.4024269  90.4090152  61.0993788  30.3474269
  92.3840152  61.3053788  29.5214269  92.5150152  60.2243788  29.5614269
  93.3150152  61.7953788  29.8084269  92.0670152  61.6833788  28.1434269
  91.1000152  61.8633788  27.9154269  92.9680152  61.8063788  27.1704269
  94.2540152  61.5863788  27.4064269  94.9280152  61.6843788  26.6604269
  94.5590152  61.3203788  28.3314269  92.5800152  62.1543788  25.9524269
  91.6030152  62.3253788  25.7634269  93.2610152  62.2483788  25.2124269
  91.3140152  61.2883788  34.4074269  91.9420152  60.2233788  34.4284269
  91.0580152  61.9993788  35.5084269  90.5980152  62.8933788  35.4164269
  91.4220152  61.5253788  36.8454269  92.3090152  60.8993788  36.7464269
  91.7510152  62.6983788  37.8024269  90.8610152  63.3223788  37.8874269
  92.1240152  62.1693788  39.1764269  91.2990152  61.5773788  39.5744269
  93.0140152  61.5443788  39.0964269  92.3260152  63.0063788  39.8454269
  92.8890152  63.5523788  37.2504269  92.6540152  63.8143788  36.2194269
  92.9600152  64.4603788  37.8494269  94.2120152  62.8693788  37.2724269
  94.4740152  62.6183788  38.3004269  94.1600152  61.9573788  36.6774269
  94.9700152  63.5323788  36.8554269  90.2370152  60.7273788  37.4414269
  89.0660152  61.0933788  37.2624269  90.5450152  59.6173788  38.1104269
  91.5150152  59.3473788  38.1914269  89.5240152  58.7793788  38.7304269
  88.6030152  59.3603788  38.7704269  89.2820152  57.5333788  37.9094269
  90.2300152  57.0123788  37.7804269  88.5850152  56.8913788  38.4484269
  88.7120152  57.8303788  36.5584269  89.5120152  58.3843788  35.5554269
  90.5390152  58.6343788  35.7764269  89.0190152  58.6183788  34.2894269
  89.6550152  59.0513788  33.5314269  87.7120152  58.2973788  33.9944269
  87.2510152  58.5213788  32.7234269  86.3360152  58.2713788  32.5734269
  86.8810152  57.7443788  34.9704269  85.8570152  57.4923788  34.7374269
  87.3910152  57.5193788  36.2564269  86.7520152  57.1003788  37.0194269
  89.9120152  58.3973788  40.1424269  91.0620152  58.0973788  40.4284269
  88.9440152  58.4123788  41.0404269  88.0010152  58.6423788  40.7604269
  89.2310152  58.0993788  42.4264269  90.1180152  57.4703788  42.4984269
  89.4490152  59.4033788  43.2014269  89.4950152  59.1703788  44.2654269
  90.7700152  60.0883788  42.7924269  91.6050152  59.4153788  42.9904269
  90.7410152  60.3283788  41.7294269  90.8980152  61.0043788  43.3684269
  88.3630152  60.2953788  42.9044269  88.7380152  61.0893788  42.5174269
  88.0180152  57.4093788  43.0014269  87.0260152  57.1983788  42.2984269
  88.1140152  56.9963788  44.2584269  88.9860152  57.1023788  44.7574269
  86.9670152  56.3893788  44.9244269  86.6360152  55.4943788  44.3974269
  87.3260152  55.9523788  46.3544269  86.4170152  55.6073788  46.8474269
  87.7240152  56.8153788  46.8884269  88.3400152  54.8533788  46.4084269
  89.4460152  54.6943788  47.1754269  89.8070152  55.3783788  47.9284269
  90.0210152  53.5023788  46.8164269  90.9200152  53.0863788  47.2454269
  89.2990152  52.9453788  45.8614269  88.2780152  53.7413788  45.5984269
  87.5120152  53.5493788  44.8614269  85.8700152  57.4743788  44.9534269
  84.7070152  57.1853788  44.6574269  86.2840152  58.7243788  45.2144269
  87.2670152  58.8813788  45.3854269  85.3750152  59.8683788  45.2624269
  84.5690152  59.6093788  45.9494269  86.0820152  61.1163788  45.8044269
  86.9940152  61.2703788  45.2274269  85.4190152  61.9703788  45.6704269
  86.4600152  61.0283788  47.2904269  86.7520152  62.0203788  47.6344269
  87.3020152  60.3443788  47.3954269  85.3090152  60.5253788  48.1664269
  85.3700152  59.4263788  48.7264269  84.2430152  61.3193788  48.2644269
  83.4460152  61.0293788  48.8124269  84.2320152  62.2113788  47.7904269
  84.7450152  60.1493788  43.9014269  83.6720152  60.7413788  43.7974269
  85.4090152  59.6873788  42.8554269  86.2850152  59.2063788  43.0004269
  84.9070152  59.8563788  41.4994269  84.5800152  60.8803788  41.3174269
  86.0130152  59.5283788  40.4854269  86.3660152  58.5113788  40.6564269
  86.8390152  60.2263788  40.6174269  85.5210152  59.6343788  39.1644269
  86.0440152  60.3013788  38.7124269  83.7670152  58.8653788  41.3534269
  82.8100152  59.0953788  40.6134269  83.8980152  57.7403788  42.0524269
  84.7210152  57.6043788  42.6224269  82.8810152  56.7053788  42.0114269
  82.6180152  56.5133788  40.9714269  83.4200152  55.3873788  42.6024269
  82.5820152  54.8163788  43.0034269  84.1160152  55.6253788  43.4074269
  84.1510152  54.5223788  41.5584269  84.1860152  54.9003788  40.3614269
  84.6720152  53.4423788  41.9284269  81.6190152  57.1713788  42.7334269
  80.5010152  56.7893788  42.3554269  81.8000152  58.0063788  43.7614269
  82.7370152  58.2723788  44.0264269  80.6720152  58.5353788  44.5014269
  80.1000152  57.6923788  44.8894269  81.1190152  59.3503788  45.7004269
  81.7690152  60.1633788  45.3764269  79.8900152  59.9553788  46.3954269
  79.3580152  60.6003788  45.6964269  79.2290152  59.1543788  46.7264269
  80.2110152  60.5403788  47.2574269  81.9020152  58.4523788  46.6634269
  81.2640152  57.6333788  46.9964269  82.7760152  58.0473788  46.1534269
  82.2230152  59.0373788  47.5254269  79.7590152  59.3483788  43.5774269
  78.5370152  59.1663788  43.6084269  80.3470152  60.1863788  42.7194269
  81.3510152  60.2913788  42.7354269  79.5560152  60.9573788  41.7534269
  78.9680152  61.6953788  42.2994269  80.4510152  61.6853788  40.7514269
  81.1460152  62.3143788  41.3074269  81.0090152  60.9393788  40.1864269
  79.6950152  62.5653788  39.7644269  78.7650152  62.1693788  38.8334269
  78.4450152  61.1503788  38.6734269  78.3000152  63.2603788  38.1334269
  77.6150152  63.2363788  37.3914269  78.9240152  64.3873788  38.6124269
  78.7770152  65.7233788  38.2374269  78.0880152  66.0153788  37.4584269
  79.5430152  66.6523788  38.8974269  79.4520152  67.6953788  38.6304269
  80.4350152  66.2833788  39.9034269  81.0240152  67.0423788  40.3964269
  80.5770152  64.9633788  40.2784269  81.2680152  64.6863788  41.0604269
  79.8110152  63.9883788  39.6284269  78.6780152  59.9893788  40.9784269
  77.4770152  60.1893788  40.8414269  79.2910152  58.9303788  40.4684269
  80.2840152  58.8163788  40.6114269  78.5620152  57.9333788  39.7094269
  78.0600152  58.4293788  38.8794269  79.5130152  56.8903788  39.1264269
  78.9790152  56.2853788  38.3934269  79.8800152  56.2493788  39.9284269
  80.6160152  57.5313788  38.4934269  80.2660152  58.0873788  37.7934269
  77.5210152  57.2773788  40.5814269  76.4450152  56.9163788  40.0844269
  77.8360152  57.0873788  41.8694269  78.7480152  57.3513788  42.2134269
  76.8510152  56.4953788  42.7754269  76.5580152  55.5183788  42.3904269
  77.4350152  56.2643788  44.1694269  78.2230152  55.5163788  44.0904269
  77.8600152  57.2043788  44.5224269  76.4150152  55.7803788  45.2024269
  76.1840152  54.4213788  45.4044269  76.7050152  53.6993788  44.7924269
  75.2910152  53.9723788  46.3834269  75.1340152  52.9143788  46.5304269
  74.6080152  54.8933788  47.1654269  73.7130152  54.4483788  48.1044269
  73.6300152  53.4943788  48.1654269  74.8110152  56.2543788  46.9884269
  74.2790152  56.9693788  47.5994269  75.7140152  56.6933788  46.0084269
  75.8730152  57.7523788  45.8714269  75.6140152  57.4253788  42.8434269
  74.4790152  56.9503788  42.8144269  75.8470152  58.7403788  42.8894269
  76.8000152  59.0743788  42.9004269  74.7530152  59.7013788  42.9234269
  74.1710152  59.5393788  43.8304269  75.1700152  60.7083788  42.9334269
  73.8360152  59.5623788  41.7204269  72.5950152  59.4933788  41.8574269
  74.4430152  59.5163788  40.5364269  75.4500152  59.5883788  40.4944269
  73.6880152  59.3643788  39.2994269  72.9870152  60.1973788  39.2424269
  74.6080152  59.4083788  38.0814269  75.3440152  58.6073788  38.1494269
  73.7950152  59.2093788  36.8224269  73.2900152  58.2443788  36.8644269
  73.0530152  60.0033788  36.7394269  74.4550152  59.2363788  35.9554269
  75.3400152  60.7273788  38.0434269  74.6180152  61.5413788  37.9754269
  75.9320152  60.8413788  38.9514269  75.9990152  60.7523788  37.1754269
  72.9140152  58.0473788  39.2974269  71.7440152  57.9973788  38.8954269
  73.5670152  56.9833788  39.7604269  74.5260152  57.0873788  40.0614269
  72.9340152  55.6683788  39.8454269  72.6610152  55.3653788  38.8344269
  73.8910152  54.6083788  40.4274269  74.1170152  54.8723788  41.4604269
  73.2460152  53.2323788  40.3954269  72.3260152  53.2483788  40.9794269
  73.0170152  52.9623788  39.3644269  73.9320152  52.4993788  40.8194269
  75.0900152  54.5753788  39.6484269  75.4840152  55.4503788  39.6844269
  71.7000152  55.7573788  40.7364269  70.6860152  55.1353788  40.4524269
  71.8130152  56.5083788  41.8324269  72.7010152  56.9503788  42.0254269
  70.7130152  56.7203788  42.7644269  70.3390152  55.7643788  43.1324269
  71.1990152  57.5273788  43.9864269  71.8150152  58.3543788  43.6334269
  70.0230152  58.0933788  44.7574269  69.4370152  58.7393788  44.1034269
  69.3970152  57.2763788  45.1174269  70.3890152  58.6713788  45.6064269
  72.0270152  56.6163788  44.9104269  71.4050152  55.7923788  45.2604269
  72.8800152  56.2193788  44.3604269  72.3820152  57.1923788  45.7654269
  69.5800152  57.4543788  42.0234269  68.4150152  57.0643788  42.1084269
  69.9390152  58.4693788  41.2404269  70.9140152  58.7263788  41.1864269
  68.9580152  59.2243788  40.4544269  68.2370152  59.6813788  41.1324269
  69.6910152  60.2923788  39.6634269  70.3620152  60.8173788  40.3424269
  70.2740152  59.7993788  38.8854269  68.8230152  61.2833788  39.0234269
  68.4220152  62.4763788  39.5474269  68.7110152  62.8553788  40.5164269
  67.5990152  63.1233788  38.6654269  67.1650152  64.0223788  38.8214269
  67.4570152  62.3583788  37.5384269  66.7280152  62.6003788  36.3654269
  66.1480152  63.5033788  36.2434269  66.7780152  61.6513788  35.3804269
  66.2280152  61.8093788  34.4644269  67.5330152  60.4733788  35.5374269
  67.5510152  59.7443788  34.7404269  68.2610152  60.2293788  36.7084269
  68.8380152  59.3233788  36.8224269  68.2240152  61.1873788  37.7284269
  68.1760152  58.3053788  39.4984269  66.9490152  58.3893788  39.3954269
  68.8790152  57.4113788  38.8064269  69.8820152  57.3683788  38.9154269
  68.2100152  56.4933788  37.8914269  67.7400152  57.0933788  37.1124269
  69.2060152  55.5363788  37.2624269  69.7710152  55.0623788  38.0654269
  68.6460152  54.7783788  36.7154269  70.1930152  56.1693788  36.3064269
  70.6690152  57.0183788  36.7974269  69.6590152  56.5143788  35.4214269
  71.2570152  55.1833788  35.8864269  70.9550152  54.2903788  35.0604269
  72.3950152  55.2923788  36.3994269  67.1490152  55.6823788  38.6224269
  66.0400152  55.4893788  38.1154269  67.4900152  55.2053788  39.8144269
  68.4130152  55.3923788  40.1784269  66.5580152  54.4203788  40.6014269
  66.1830152  53.6233788  39.9594269  67.2750152  53.8243788  41.8014269
  67.5940152  54.6483788  42.4404269  66.5600152  53.2033788  42.3404269
  68.5040152  52.9653788  41.4994269  69.2550152  53.5473788  40.9644269
  69.0890152  52.4823788  42.8174269  69.3840152  53.3413788  43.4204269
  68.3410152  51.9003788  43.3554269  69.9620152  51.8593788  42.6214269
  68.1050152  51.7923788  40.6194269  67.3530152  51.1923788  41.1324269
  67.6950152  52.1653788  39.6814269  68.9810152  51.1773788  40.4134269
  65.3340152  55.2303788  41.0594269  64.2010152  54.8023788  40.8404269
  65.5560152  56.4023788  41.6644269  66.5070152  56.7193788  41.7874269
  64.4490152  57.2463788  42.1574269  63.8820152  56.5993788  42.8264269
  64.9610152  58.4573788  42.9414269  64.0990152  59.0333788  43.2784269
  65.5650152  59.0673788  42.2694269  65.8100152  58.1123788  44.1624269
  65.9550152  59.0183788  44.7504269  66.7760152  57.7433788  43.8184269
  65.0610152  56.8573788  45.2204269  66.4280152  56.4783788  46.4064269
  67.2940152  56.1093788  45.8564269  66.7000152  57.3843788  46.9484269
  66.0950152  55.7183788  47.1134269  63.4930152  57.7083788  41.0614269
  62.3120152  57.9343788  41.3284269  64.0130152  57.8493788  39.8394269
  64.9980152  57.6703788  39.7094269  63.2110152  58.2543788  38.6754269
  62.4120152  58.8783788  39.0754269  64.0360152  59.0273788  37.6574269
  63.4080152  59.2493788  36.7954269  64.5260152  60.3243788  38.2394269
  63.6730152  60.9293788  38.5474269  65.1570152  60.1193788  39.1044269
  65.1030152  60.8643788  37.4884269  65.1600152  58.2313788  37.2604269
  65.6850152  58.0583788  38.0454269  62.6460152  57.0363788  37.9354269
  62.0460152  57.1843788  36.8824269  62.8700152  55.8413788  38.4864269
  63.3860152  55.8083788  39.3544269  62.4140152  54.5753788  37.9104269
  62.8100152  53.8213788  38.5914269  60.8850152  54.4993788  37.8784269
  60.5120152  55.3093788  37.2514269  60.5960152  53.5413788  37.4454269
  60.2550152  54.6173788  39.2264269  60.2070152  53.5283788  40.0754269
  60.5710152  52.5703788  39.7354269  59.6870152  53.6523788  41.3844269
  59.6570152  52.7933788  42.0384269  59.2150152  54.8823788  41.8274269
  58.8190152  54.9863788  42.8264269  59.2580152  55.9823788  40.9674269
  58.8930152  56.9423788  41.3014269  59.7720152  55.8433788  39.6774269
  59.7960152  56.6993788  39.0194269  63.0080152  54.2023788  36.5434269
  62.3790152  53.4973788  35.7584269  64.2270152  54.6563788  36.2724269
  64.7040152  55.2483788  36.9374269  64.8730152  54.3033788  35.0234269
  65.8740152  53.9523788  35.2724269  64.2990152  53.4853788  34.5894269
  65.0290152  55.3523788  33.9464269  65.1760152  55.0083788  32.7804269
  65.0380152  56.6233788  34.3174269  64.9510152  56.8613788  35.2954269
  65.1720152  57.6813788  33.3244269  64.5750152  57.3853788  32.4614269
  64.6380152  59.0063788  33.8724269  64.7900152  59.7903788  33.1304269
  65.1760152  59.2613788  34.7854269  63.2540152  58.8973788  34.1604269
  63.1480152  58.2053788  34.8174269  66.6070152  57.8473788  32.8494269
  67.5570152  57.5033788  33.5554269  66.7560152  58.3553788  31.6314269
  65.9360152  58.5963788  31.0944269  68.0720152  58.5723788  31.0534269
  68.7740152  57.7983788  31.3614269  67.9850152  58.5213788  29.5154269
  67.3490152  59.3403788  29.1814269  68.9890152  58.6533788  29.1114269
  67.4060152  57.1973788  28.9584269  68.2110152  56.4643788  28.9054269
  66.6370152  56.8423788  29.6444269  66.7810152  57.3353788  27.5554269
  65.9560152  58.0453788  27.6074269  66.4030152  56.3623788  27.2424269
  67.7950152  57.8303788  26.5144269  68.5470152  57.0543788  26.3764269
  68.2690152  58.7313788  26.9034269  67.2050152  58.1543788  25.1714269
  66.7590152  57.3313788  24.7924269  66.5210152  58.8913788  25.2724269
  67.9380152  58.4583788  24.5464269  68.5520152  59.9313788  31.5344269
  67.8620152  60.9323788  31.3734269  69.7000152  59.9693788  32.2154269
  70.5160152  58.8363788  32.6724269  70.1270152  58.4163788  33.6004269
  70.5700152  58.0553788  31.9144269  71.8490152  59.4823788  32.8834269
  72.4610152  58.9003788  33.5724269  72.3800152  59.6013788  31.9384269
  71.4890152  60.8323788  33.4804269  72.2910152  61.5533788  33.3234269
  71.2840152  60.7433788  34.5474269  70.2250152  61.2433788  32.7114269
  69.5150152  61.7793788  33.3414269  70.5100152  62.2233788  31.5864269
  71.2290152  61.9063788  30.6414269  69.9440152  63.4243788  31.7164269
  69.3910152  63.6013788  32.5434269  70.0760152  64.5013788  30.7324269
  69.5060152  65.3683788  31.0674269  71.5360152  64.9443788  30.5754269
  72.0260152  64.2483788  29.8944269  71.5380152  65.9423788  30.1384269
  72.3480152  64.9943788  31.8514269  72.3290152  66.1143788  32.6764269
  71.6830152  66.9443788  32.4304269  73.1370152  66.1823788  33.8244269
  73.1130152  67.0593788  34.4544269  73.9720152  65.1083788  34.1464269
  74.8140152  65.1533788  35.2434269  75.3650152  64.3763788  35.3644269
  73.9920152  63.9903788  33.3434269  74.6310152  63.1563788  33.5944269
  73.1840152  63.9353788  32.2024269  73.2090152  63.0533788  31.5804269
  69.5530152  63.9763788  29.3964269  70.2400152  64.0773788  28.3844269
  68.3310152  63.4343788  29.4094269  67.8160152  63.4353788  30.2784269
  67.6980152  62.8383788  28.2264269  68.2380152  61.8973788  28.1164269
  66.2040152  62.6053788  28.4584269  65.7270152  63.5653788  28.6584269
  66.0820152  61.9513788  29.3224269  65.5210152  61.9613788  27.2574269
  65.7250152  60.7473788  27.0204269  64.7910152  62.6823788  26.5404269
  67.8960152  63.5523788  26.9004269  68.0150152  62.8993788  25.8604269
  67.8880152  64.8813788  26.9224269  67.7390152  65.3743788  27.7914269
  68.0940152  65.6173788  25.6914269  67.5800152  65.1073788  24.8774269
  67.6900152  66.6233788  25.8024269  69.5750152  65.7053788  25.3704269
  70.1090152  64.9393788  24.5644269  70.2330152  66.6263788  26.0604269
  69.7070152  67.1733788  26.7264269  71.6560152  66.9093788  25.9314269
  71.7240152  67.6523788  25.1364269  72.1900152  67.4353788  27.2774269
  72.1370152  66.6323788  28.0124269  73.6310152  67.8703788  27.1464269
  74.2370152  67.0253788  26.8184269  73.7030152  68.6743788  26.4144269
  73.9930152  68.2243788  28.1114269  71.3320152  68.6153788  27.7444269
  71.3630152  69.3843788  26.9724269  70.3080152  68.2633788  27.8664269
  71.7760152  69.2413788  29.0534269  71.7280152  68.4963788  29.8474269
  72.8000152  69.6013788  28.9554269  71.1190152  70.0763788  29.2984269
  72.5350152  65.7493788  25.4584269  72.3890152  64.6253788  25.9254269
  73.3900152  65.9963788  24.4494269  73.3730152  67.1933788  23.5854269
  72.4220152  67.2853788  23.0614269  73.5580152  68.0983788  24.1644269
  74.5180152  66.9233788  22.6054269  74.3450152  67.4203788  21.6514269
  75.4740152  67.2483788  23.0164269  74.4720152  65.4383788  22.4564269
  75.3970152  65.0533788  22.0264269  73.6280152  65.1273788  21.8404269
  74.3010152  64.9853788  23.9014269  73.9420152  63.9593788  23.9774269
  75.6220152  65.0383788  24.6634269  76.0700152  66.1083788  25.0844269
  76.2500152  63.8793788  24.8034269  75.8370152  63.0583788  24.3834269
  77.5060152  63.7253788  25.5314269  77.2080152  63.7433788  26.5794269
  78.1580152  62.4153788  25.1394269  77.4570152  61.5973788  25.3044269
  78.4360152  62.4493788  24.0864269  79.0500152  62.2573788  25.7454269
  78.5190152  64.8633788  25.4334269  79.2410152  65.1453788  26.3924269
  78.5610152  65.5193788  24.2804269  77.9210152  65.2573788  23.5444269
  79.5060152  66.6103788  24.0434269  80.4830152  66.2103788  24.3164269
  79.4710152  67.0323788  22.5724269  80.2490152  67.7753788  22.3964269
  78.4970152  67.4673788  22.3494269  79.6880152  65.9243788  21.7204269
  78.9880152  65.2883788  21.8874269  79.2700152  67.8393788  24.9094269
  80.2210152  68.5383788  25.2764269  78.0050152  68.0963788  25.2324269
  77.2810152  67.4643788  24.9204269  77.6340152  69.2653788  26.0244269
  78.3810152  70.0163788  25.7664269  76.2250152  69.7313788  25.6554269
  75.5230152  68.9393788  25.9154269  75.9970152  70.6243788  26.2374269
  76.0470152  70.0613788  24.1864269  76.0740152  69.1333788  23.6144269
  76.8680152  70.7063788  23.8724269  74.7380152  70.7683788  23.9004269
  73.7040152  70.4093788  24.5074269  74.7440152  71.6923788  23.0604269
  77.7320152  69.0973788  27.5324269  77.9940152  70.0763788  28.2404269
  77.5660152  67.8573788  28.0004269  77.4090152  67.1143788  27.3344269
  77.5990152  67.5113788  29.4304269  76.6330152  67.8633788  29.7924269
  77.7450152  65.9933788  29.6464269  78.6900152  65.6723788  29.2084269
  77.7700152  65.6633788  31.1194269  78.5990152  66.1873788  31.5954269
  76.8320152  65.9763788  31.5774269  77.8970152  64.5883788  31.2484269
  76.6030152  65.2473788  28.9514269  76.7160152  65.3833788  27.8754269
  76.6930152  64.1893788  29.1954269  75.2040152  65.7033788  29.3394269
  75.0550152  65.5503788  30.4084269  75.0890152  66.7613788  29.1044269
  74.4660152  65.1253788  28.7834269  78.6550152  68.2263788  30.2564269
  78.3620152  68.7323788  31.3364269  79.8750152  68.2913788  29.7464269
  80.0630152  67.8733788  28.8464269  80.9480152  68.9583788  30.4694269
  81.0960152  68.4293788  31.4114269  82.2480152  68.9143788  29.6554269
  82.0770152  69.3893788  28.6894269  82.5360152  67.8743788  29.5034269
  83.3030152  69.5933788  30.3244269  83.0290152  70.5053788  30.4474269
  80.5830152  70.4063788  30.7794269  80.7800152  70.8693788  31.8964269
  80.0210152  71.0983788  29.7924269  79.8420152  70.6353788  28.9124269
  79.6540152  72.5033788  29.9364269  80.5040152  72.9643788  30.4384269
  79.4320152  73.1413788  28.5614269  79.0350152  74.1483788  28.6934269
  78.7180152  72.5403788  27.9984269  80.6520152  73.2113788  27.8414269
  80.9770152  72.3143788  27.7334269  78.4630152  72.7793788  30.8494269
  78.4940152  73.7203788  31.6544269  77.4070152  71.9883788  30.7164269
  77.4040152  71.2493788  30.0284269  76.2610152  72.1983788  31.5694269
  75.8830152  73.2103788  31.4214269  75.0920152  71.2543788  31.2274269
  74.1910152  71.6293788  31.7124269  74.8400152  71.2373788  29.7244269
  74.6190152  72.2483788  29.3814269  75.7270152  70.8653788  29.2114269
  73.9940152  70.5863788  29.5054269  75.3530152  69.8553788  31.7634269
  76.0520152  69.3513788  31.0964269  75.7950152  69.9393788  32.7564269
  74.1030152  69.0293788  31.8624269  73.4010152  69.5133788  32.5414269
  73.6500152  68.9363788  30.8754269  74.3510152  68.0383788  32.2424269
  76.7200152  71.9863788  33.0134269  76.3020152  72.7113788  33.9134269
  77.6460152  71.0473788  33.2154269  77.9940152  70.5173788  32.4294269
  78.1640152  70.7733788  34.5474269  77.3060152  70.7083788  35.2164269
  78.9080152  69.4393788  34.5884269  79.6420152  69.4473788  33.7824269
  79.4230152  69.3793788  35.5474269  78.0630152  68.1613788  34.4344269
  77.5300152  68.2133788  33.4844269  78.9630152  66.9393788  34.4334269
  79.6790152  67.0163788  33.6154269  79.4990152  66.8823788  35.3804269
  78.3580152  66.0423788  34.3034269  77.0480152  68.0553788  35.5454269
  77.5630152  68.0023788  36.5044269  76.3990152  68.9313788  35.5294269
  76.4480152  67.1563788  35.4054269  79.0540152  71.8933788  35.0454269
  79.0910152  72.1733788  36.2324269  79.7580152  72.5523788  34.1334269
  79.6820152  72.2843788  33.1624269  80.6420152  73.6583788  34.5014269
  81.2680152  73.3503788  35.3384269  81.5760152  74.0173788  33.3344269
  80.9650152  74.2073788  32.4524269  82.1230152  74.9223788  33.5994269
  82.5930152  72.9223788  32.9904269  82.0480152  72.0113788  32.7444269
  83.2190152  72.7463788  33.8654269  83.5010152  73.2763788  31.8094269
  84.5710152  73.8903788  32.0364269  83.1540152  72.9193788  30.6574269
  79.8100152  74.8643788  34.9414269  80.2200152  75.6183788  35.8274269
  78.6230152  75.0103788  34.3484269  78.3490152  74.3413788  33.6424269
  77.6980152  76.1033788  34.6794269  78.3050152  77.0063788  34.7474269
  76.6270152  76.2733788  33.5944269  76.1850152  75.2943788  33.4104269
  75.8650152  76.9473788  33.9854269  77.0910152  76.8303788  32.2514269
  77.3850152  77.8733788  32.3714269  77.9420152  76.2523788  31.8914269
  75.9410152  76.7343788  31.2384269  75.0870152  77.2853788  31.6324269
  75.6730152  75.6843788  31.1194269  76.2900152  77.3033788  29.8624269
  75.5730152  76.9193788  29.1364269  77.2930152  76.9713788  29.5934269
  76.2560152  78.7933788  29.8214269  75.3310152  79.1163788  30.0684269
  76.9280152  79.1633788  30.4774269  76.4850152  79.1093788  28.8904269
  76.9890152  75.8623788  36.0184269  76.1610152  76.6663788  36.4324269
  77.2730152  74.7273788  36.6574269  77.9160152  74.0693788  36.2404269
  76.6720152  74.4223788  37.9444269  77.3830152  73.8263788  38.5174269
  76.4860152  75.3633788  38.4624269  75.3650152  73.6573788  37.8734269
  74.7480152  73.3753788  38.8984269  74.9190152  73.3383788  36.6664269
  75.4420152  73.6183788  35.8484269  73.6810152  72.5873788  36.5104269
  72.8950152  73.0423788  37.1124269  73.2620152  72.6163788  35.0464269
  73.2420152  73.6583788  34.7274269  74.0160152  72.0753788  34.4744269
  71.8940152  72.0003788  34.7144269  71.1590152  72.3583788  35.4354269
  71.9680152  70.9143788  34.7794269  71.4400152  72.3823788  33.3154269
  72.0430152  73.3153788  32.7344269  70.4920152  71.7563788  32.7914269
  73.8730152  71.1393788  37.0004269  75.0010152  70.6063788  36.9774269
  72.7840152  70.5233788  37.4684269  71.9060152  71.0223788  37.4784269
  72.8220152  69.1573788  37.9634269  73.6540152  68.6503788  37.4754269
  73.0460152  69.1323788  39.4724269  72.3080152  69.7853788  39.9384269
  72.9000152  68.1103788  39.8224269  74.4300152  69.5913788  39.9064269
  74.4670152  69.6073788  40.9954269  74.6000152  70.5973788  39.5224269
  75.5460152  68.6733788  39.3904269  75.5890152  68.7373788  38.3034269
  75.3310152  67.6463788  39.6854269  76.8400152  69.0743788  39.9494269
  77.1830152  68.5653788  40.7514269  77.5960152  70.0633788  39.4734269
  77.2240152  70.7693788  38.4064269  76.3950152  70.5083788  37.8914269
  77.7710152  71.5663788  38.1124269  78.6790152  70.4193788  40.1314269
  78.9290152  69.9443788  40.9874269  79.2600152  71.1673788  39.7804269
  71.5460152  68.4373788  37.6314269  70.6560152  69.0163788  37.0544269
  71.4630152  67.1553788  37.9684269  72.2390152  66.7083788  38.4354269
  70.2610152  66.3913788  37.6684269  69.9940152  66.5003788  36.6174269
  70.4840152  64.8873788  37.8904269  70.9680152  64.7523788  38.8574269
  69.5110152  64.3953788  37.8994269  71.3570152  64.2123788  36.8144269
  72.3160152  64.7303788  36.7854269  71.6410152  62.7463788  37.1374269
  72.1420152  62.6773788  38.1034269  70.7020152  62.1943788  37.1754269
  72.2820152  62.3213788  36.3644269  70.6550152  64.3133788  35.4724269
  69.7000152  63.7903788  35.5214269  70.4830152  65.3623788  35.2304269
  71.2780152  63.8603788  34.7014269  69.1480152  66.9333788  38.5384269
  69.4030152  67.4333788  39.6314269  67.9080152  66.9093788  38.0344269
  67.5050152  66.4583788  36.6864269  67.8120152  67.1733788  35.9234269
  67.9250152  65.4793788  36.4564269  65.9970152  66.3943788  36.8004269
  65.5210152  66.5053788  35.8264269  65.6730152  65.4603788  37.2594269
  65.7030152  67.5703788  37.6894269  64.6950152  67.5143788  38.0994269
  65.8250152  68.5113788  37.1534269  66.7560152  67.4153788  38.7844269
  66.9930152  68.3363788  39.3184269  66.2780152  66.5113788  39.9334269
  66.5760152  65.3263788  39.9684269  65.5360152  67.1013788  40.8694269
  65.3410152  68.0873788  40.7724269  64.9910152  66.4023788  42.0244269
  65.7570152  65.7883788  42.4984269  64.5060152  67.4333788  43.0724269
  65.3630152  68.0413788  43.3634269  63.7570152  68.0663788  42.5954269
  63.8820152  66.8513788  44.3584269  64.5150152  66.0333788  44.7024269
  62.8930152  66.4663788  44.1114269  63.7270152  67.8723788  45.5314269
  64.0970152  69.0573788  45.4404269  63.1840152  67.3863788  46.6414269
  63.0600152  67.9833788  47.4464269  62.8950152  66.4193788  46.6804269
  63.8610152  65.4793788  41.5614269  62.8820152  65.9233788  40.9914269
  64.0410152  64.1613788  41.6994269  65.2300152  63.4593788  42.2144269
  66.1500152  63.9393788  41.8804269  65.2210152  63.4103788  43.3034269
  65.0720152  62.0863788  41.6004269  65.4040152  62.0793788  40.5624269
  65.6280152  61.3373788  42.1644269  63.6110152  61.8523788  41.6964269
  63.3230152  61.5923788  42.7154269  63.2970152  61.0603788  41.0164269
  63.0100152  63.2053788  41.2824269  62.7500152  63.2483788  40.2244269
  61.7550152  63.4853788  42.0884269  61.8390152  63.7283788  43.2944269
  60.5840152  63.5013788  41.4344269  60.4030152  63.5773788  39.9834269
  60.3960152  64.6093788  39.6334269  61.1740152  63.0193788  39.4534269
  59.0570152  62.9353788  39.8354269  58.5850152  63.2423788  38.9014269
  59.1450152  61.8493788  39.8584269  58.2680152  63.4273788  41.0134269
  57.5860152  62.6533788  41.3644269  57.7000152  64.3183788  40.7454269
  59.3050152  63.7583788  42.0954269  59.2850152  64.7883788  42.4514269
  59.0300152  63.0133788  43.3864269  58.4260152  63.5793788  44.2894269
  59.5030152  61.7773788  43.5074269  60.0340152  61.3673788  42.7524269
  59.2580152  61.0053788  44.7314269  58.2590152  61.3073788  45.0454269
  59.3160152  59.4833788  44.4654269  58.9050152  58.9733788  45.3364269
  58.4780152  59.1103788  43.2424269  57.4450152  59.4203788  43.4014269
  58.8770152  59.6133788  42.3614269  58.5140152  58.0313788  43.0924269
  60.7580152  59.0373788  44.2574269  61.0960152  59.3963788  43.2854269
  61.3740152  59.4773788  45.0414269  60.9240152  57.5293788  44.3004269
  60.6070152  57.1563788  45.2744269  60.3130152  57.0743788  43.5214269
  61.9710152  57.2743788  44.1364269  60.2370152  61.3143788  45.8614269
  60.0910152  60.8043788  46.9944269  61.1840152  62.2043788  45.5714269
  61.1700152  62.6583788  44.6694269  62.2410152  62.5433788  46.5184269
  62.2110152  61.6473788  47.1384269  63.5480152  62.8123788  45.7744269
  64.2150152  63.3533788  46.4464269  63.3220152  63.4343788  44.9084269
  64.4030152  61.3523788  45.2014269  65.5330152  61.7113788  44.5854269
  62.0790152  63.6583788  47.5094269  61.9410152  64.8183788  47.1284269
  62.1950152  63.3183788  48.7884269  62.3250152  62.3503788  49.0454269
  62.1350152  64.3383788  49.8124269  61.2390152  64.9483788  49.6934269
  62.0780152  63.7623788  51.2354269  62.1650152  64.5873788  51.9424269
  60.7570152  63.0633788  51.4944269  59.9390152  63.7693788  51.3524269
  60.6440152  62.2313788  50.7994269  60.7390152  62.6873788  52.5174269
  63.1590152  62.8493788  51.4274269  63.0540152  62.1373788  50.7924269
  63.4490152  65.0753788  49.6574269  64.4030152  64.5423788  49.0964269
  63.5020152  66.3013788  50.1564269  62.6860152  66.6913788  50.6064269
  64.7160152  67.0933788  50.0654269  64.9570152  67.2033788  49.0084269
  64.5100152  68.5203788  50.6634269  63.6530152  69.0023788  50.1934269
  64.1730152  68.4433788  52.1654269  63.2640152  67.8583788  52.3044269
  64.9960152  67.9673788  52.6984269  64.0210152  69.4493788  52.5554269
  65.7430152  69.3813788  50.3584269  66.6260152  68.8203788  50.6634269
  65.7740152  69.5513788  49.2824269  65.7910152  70.7173788  51.0364269
  64.9340152  71.3143788  50.7234269  65.7610152  70.5773788  52.1174269
  66.7120152  71.2313788  50.7614269  65.8910152  66.3813788  50.7594269
  67.0240152  66.5613788  50.3634269  65.5960152  65.5753788  51.7804269
  64.6250152  65.4773788  52.0394269  66.5840152  64.8283788  52.5444269
  67.2570152  65.5393788  53.0234269  65.8740152  63.9643788  53.5904269
  66.6140152  63.3293788  54.0774269  65.1370152  63.3413788  53.0844269
  65.1690152  64.7813788  54.6494269  64.0120152  65.2033788  54.4244269
  65.7590152  64.9713788  55.7284269  67.3820152  63.8953788  51.6204269
  68.6120152  63.8333788  51.6824269  66.6630152  63.1293788  50.8034269
  65.6560152  63.1983788  50.8274269  67.2820152  62.1963788  49.8774269
  68.0020152  61.6103788  50.4484269  66.2300152  61.2373788  49.2564269
  65.3890152  61.8383788  48.9114269  66.8260152  60.4743788  48.0644269
  67.1680152  61.1853788  47.3124269  67.6680152  59.8713788  48.4034269
  66.0650152  59.8253788  47.6314269  65.7530152  60.2373788  50.2974269
  66.5970152  59.6383788  50.6394269  65.3200152  60.7713788  51.1434269
  65.0000152  59.5843788  49.8564269  68.0130152  62.9343788  48.7584269
  69.1330152  62.5843788  48.4144269  67.3690152  63.9463788  48.1844269
  66.4470152  64.1953788  48.5144269  67.9600152  64.7013788  47.0954269
  68.2440152  63.9783788  46.3304269  66.9480152  65.6833788  46.5204269
  66.0650152  65.1273788  46.2074269  66.6720152  66.3933788  47.3004269
  67.4750152  66.4513788  45.3374269  68.0070152  65.7973788  44.2324269
  68.0660152  64.7193788  44.2304269  68.4680152  66.5153788  43.1224269
  68.8790152  65.9963788  42.2694269  68.3920152  67.8963788  43.1304269
  68.8830152  68.6343788  42.0874269  69.2370152  68.1203788  41.3584269
  67.8670152  68.5573788  44.2134269  67.8050152  69.6353788  44.2134269
  67.4160152  67.8323788  45.3104269  67.0100152  68.3603788  46.1614269
  69.2300152  65.4353788  47.5044269  70.1230152  65.6603788  46.6884269
  69.3150152  65.7883788  48.7754269  68.5480152  65.5753788  49.3974269
  70.4820152  66.4743788  49.3014269  70.7160152  67.3433788  48.6854269
  70.1940152  66.9253788  50.7264269  70.2060152  66.0463788  51.3704269
  69.2020152  67.3763788  50.7464269  71.1700152  67.9193788  51.2744269
  72.0930152  67.8933788  50.6964269  71.3880152  67.6913788  52.3174269
  70.4260152  69.5093788  51.1484269  71.6470152  70.2923788  50.1974269
  72.5940152  70.2763788  50.7374269  71.7600152  69.7683788  49.2484269
  71.3540152  71.3253788  50.0094269  71.6770152  65.5003788  49.2994269
  72.8390152  65.9283788  49.2784269  71.3830152  64.2013788  49.3994269
  70.4180152  63.9173788  49.4904269  72.4330152  63.1823788  49.3794269
  73.1840152  63.4663788  50.1164269  71.9160152  61.7643788  49.7694269
  71.1800152  61.4633788  49.0234269  73.0700152  60.7913788  49.7984269
  73.5490152  60.7663788  48.8194269  73.7940152  61.1083788  50.5494269
  72.7000152  59.7963788  50.0474269  71.2490152  61.7713788  51.1474269
  70.4750152  62.5383788  51.1494269  70.7930152  60.7953788  51.3124269
  72.1850152  62.0473788  52.2734269  72.9550152  61.2763788  52.3034269
  72.6520152  63.0213788  52.1274269  71.6330152  62.0463788  53.2134269
  73.0070152  63.1173788  47.9554269  74.2210152  63.1613788  47.7774269
  72.1240152  63.0593788  46.9574269  71.1390152  63.0503788  47.1814269
  72.5230152  63.0083788  45.5564269  73.1710152  62.1423788  45.4224269
  71.2980152  62.8513788  44.6534269  71.6370152  62.8003788  43.6184269
  70.6600152  63.7253788  44.7844269  70.4700152  61.6003788  44.9514269
  70.2850152  61.5613788  46.0254269  71.0500152  60.7283788  44.6504269
  68.8760152  61.5403788  44.1004269  69.2890152  62.3643788  42.7344269
  69.6220152  63.3673788  43.0014269  70.0950152  61.8383788  42.2224269
  68.4230152  62.4323788  42.0754269  73.2980152  64.2563788  45.1704269
  74.3210152  64.1773788  44.5054269  72.8280152  65.4093788  45.6154269
  71.9830152  65.4153788  46.1694269  73.4980152  66.6733788  45.3274269
  73.6270152  66.7423788  44.2474269  72.6140152  67.8673788  45.8014269
  72.3410152  67.7043788  46.8444269  73.3680152  69.2043788  45.7444269
  74.2570152  69.1473788  46.3724269  73.6630152  69.4113788  44.7154269
  72.7190152  70.0033788  46.1044269  71.3800152  67.9243788  44.9384269
  71.6700152  68.0873788  43.9004269  70.8360152  66.9833788  45.0204269
  70.7420152  68.7433788  45.2704269  74.9110152  66.7403788  45.9284269
  75.8340152  67.2763788  45.3064269  75.0880152  66.1713788  47.1174269
  74.3070152  65.7233788  47.5754269  76.4010152  66.1843788  47.7744269
  76.7340152  67.2223788  47.7584269  76.2990152  65.6933788  49.2104269
  75.7290152  64.7643788  49.2074269  77.3090152  65.4983788  49.5704269
  75.6380152  66.6383788  50.1764269  76.2180152  67.5583788  50.2414269
  74.6300152  66.8683788  49.8304269  75.5680152  65.9793788  51.5544269
  76.5770152  65.7133788  51.8694269  74.9600152  65.0773788  51.4824269
  74.9530152  66.9063788  52.6014269  73.9600152  67.2123788  52.2734269
  75.5840152  67.7873788  52.7184269  74.8450152  66.2083788  53.8974269
  74.2600152  65.3913788  53.7924269  75.7650152  65.9263788  54.2054269
  74.4360152  66.8293788  54.5814269  77.4350152  65.3343788  47.0354269
  78.6220152  65.6243788  47.0834269  76.9860152  64.2733788  46.3704269
  75.9980152  64.0643788  46.3834269  77.8870152  63.4043788  45.6224269
  78.7310152  63.1493788  46.2634269  77.1660152  62.1083788  45.1994269
  77.8620152  61.5343788  44.5884269  76.3060152  62.3973788  44.5954269
  76.5620152  61.0083788  46.5064269  75.6620152  61.6553788  47.2524269
  78.3820152  64.1343788  44.3634269  79.3300152  63.6823788  43.7094269
  77.7290152  65.2563788  44.0414269  76.9860152  65.5673788  44.6514269
  78.0290152  66.0553788  42.8614269  78.7690152  65.4653788  42.3204269
  76.7570152  66.2613788  42.0494269  76.0570152  66.8443788  42.6474269
  77.0110152  66.8143788  41.1454269  76.0860152  64.9793788  41.6484269
  76.6840152  63.7653788  41.4624269  77.7450152  63.5823788  41.5434269
  75.7450152  62.8103788  41.1584269  75.9360152  61.8343788  40.9804269
  74.5070152  63.3953788  41.1364269  73.2450152  62.8293788  40.8784269
  73.1400152  61.7793788  40.6504269  72.1450152  63.6643788  40.9274269
  71.1630152  63.2583788  40.7344269  72.2800152  65.0363788  41.2244269
  71.4020152  65.6643788  41.2574269  73.5560152  65.6023788  41.4804269
  73.6570152  66.6533788  41.7054269  74.6830152  64.7693788  41.4354269
  78.7380152  67.3933788  43.0834269  78.7250152  68.2623788  42.2044269
  79.3520152  67.5563788  44.2514269  79.2870152  66.8233788  44.9434269
  80.1190152  68.7623788  44.5694269  79.5020152  69.6483788  44.4184269
  80.6040152  68.7133788  46.0184269  81.0970152  69.6603788  46.2394269
  81.3250152  67.9003788  46.1034269  79.5220152  68.4923788  47.0644269
  79.9930152  68.1173788  47.9724269  78.8230152  67.7473788  46.6834269
  78.5970152  69.9803788  47.4774269  79.5490152  70.5613788  48.7524269
  79.5790152  69.8193788  49.5504269  80.5610152  70.7503788  48.3934269
  79.1190152  71.4873788  49.1334269  81.3620152  68.7393788  43.6784269
  81.8000152  67.6683788  43.2774269  81.9300152  69.9063788  43.3764269
  81.5150152  70.7563788  43.7314269  83.1350152  70.0013788  42.5474269
  82.9640152  69.4433788  41.6264269  83.4490152  71.4913788  42.1364269
  83.0080152  72.1253788  42.9054269  84.9600152  71.7413788  42.0554269
  85.4190152  71.5103788  43.0174269  85.3930152  71.1043788  41.2844269
  85.1430152  72.7873788  41.8074269  82.8470152  71.8233788  40.7644269
  83.1770152  72.8233788  40.4824269  83.2260152  71.0983788  40.0434269
  81.3450152  71.7943788  40.7114269  80.9920152  70.7943788  40.9634269
  80.9420152  72.5123788  41.4254269  81.0120152  72.0553788  39.7064269
  84.3170152  69.4003788  43.3104269  85.0350152  68.5513788  42.7804269
  84.5100152  69.8343788  44.5524269  83.8870152  70.5343788  44.9284269
  85.5980152  69.3283788  45.3914269  86.5390152  69.3483788  44.8424269
  85.7570152  70.2173788  46.6334269  84.8540152  70.1353788  47.2384269
  85.8840152  71.2503788  46.3084269  86.9460152  69.8293788  47.4844269
  88.0890152  69.8733788  46.9764269  86.7420152  69.4933788  48.6714269
  85.2740152  67.8783788  45.7914269  84.3660152  67.6313788  46.5884269
  86.0190152  66.9273788  45.2284269  86.7660152  67.1993788  44.6054269
  85.7940152  65.5053788  45.4804269  84.7830152  65.3163788  45.1194269
  86.8000152  64.6503788  44.6954269  86.7440152  64.9033788  43.6364269
  87.8070152  64.8463788  45.0624269  86.5630152  63.5953788  44.8294269
  85.7520152  65.0923788  46.9534269  84.9190152  64.2613788  47.3234269
  86.6210152  65.6733788  47.7854269  87.2800152  66.3443788  47.4174269
  86.6450152  65.3623788  49.2264269  86.6720152  64.2743788  49.2814269
  87.8800152  65.9523788  49.9124269  87.8190152  65.7403788  50.9794269
  87.8820152  67.0313788  49.7554269  89.1900152  65.3813788  49.3784269
  89.2990152  64.1423788  49.2054269  90.1160152  66.1893788  49.1424269
  85.4030152  65.8603788  49.9634269  85.1100152  65.4193788  51.0684269
  84.7080152  66.8233788  49.3764269  85.0210152  67.1993788  48.4924269
  83.5040152  67.3423788  49.9894269  83.7020152  67.5183788  51.0464269
  83.1010152  68.6673788  49.3444269  82.0650152  68.8923788  49.5994269
  83.2000152  68.5863788  48.2624269  83.9380152  69.7123788  49.8154269
  84.8410152  69.4913788  49.5764269  82.3740152  66.3313788  49.8564269
  81.4550152  66.3113788  50.6794269  82.4450152  65.4893788  48.8264269
  83.2230152  65.5443788  48.1844269  81.4090152  64.4923788  48.6224269
  80.4420152  64.9943788  48.6014269  81.6090152  63.7663788  47.3064269
  82.5090152  63.1553788  47.3774269  80.7470152  63.1243788  47.1264269
  81.7550152  64.6913788  46.1674269  82.5460152  65.4073788  46.3914269
  80.8150152  65.2233788  46.0204269  82.1020152  63.9613788  44.9114269
  81.2400152  63.3903788  44.5674269  82.9360152  63.2843788  45.0974269
  82.4800152  64.9403788  43.8974269  82.0540152  65.8543788  43.9514269
  83.3380152  64.7233788  42.9114269  83.9450152  63.5503788  42.7814269
  83.8000152  62.8273788  43.4724269  84.5510152  63.3803788  41.9914269
  83.5240152  65.6673788  42.0134269  83.0170152  66.5383788  42.0834269
  84.1740152  65.5213788  41.2544269  81.4600152  63.4873788  49.7524269
  82.4650152  63.3973788  50.4534269  80.3340152  62.8173788  50.0264269
  78.9640152  63.0883788  49.5424269  78.5530152  63.9833788  50.0094269
  78.9460152  63.2033788  48.4584269  78.2130152  61.8653788  49.9664269
  77.1600152  62.0983788  50.1264269  78.3010152  61.0813788  49.2144269
  78.8570152  61.4423788  51.2434269  78.7540152  60.3663788  51.3844269
  78.4070152  61.9633788  52.0884269  80.3380152  61.8263788  51.1024269
  80.7680152  62.2093788  52.0284269  81.1830152  60.6093788  50.7244269
  81.5990152  60.4283788  49.5664269  81.4390152  59.7883788  51.7264269
  81.0890152  60.0193788  52.6454269  82.1980152  58.5763788  51.5574269
  82.7810152  58.5903788  50.6364269  83.1880152  58.4063788  52.7174269
  82.6320152  58.4353788  53.6544269  83.6780152  57.4383788  52.6154269
  84.2650152  59.4973788  52.7544269  84.7820152  59.5183788  51.7954269
  83.7880152  60.4613788  52.9314269  85.2870152  59.2363788  53.8654269
  85.8330152  58.3233788  53.6274269  84.7520152  59.1043788  54.8054269
  86.2960152  60.3813788  54.0324269  86.7250152  60.6143788  53.0574269
  87.0860152  60.0553788  54.7084269  85.6690152  61.6173788  54.5884269
  84.9340152  61.9293788  53.9694269  85.2800152  61.4173788  55.4994269
  86.3680152  62.3413788  54.6724269  81.1880152  57.4513788  51.5514269
  80.1090152  57.5743788  52.1504269  81.5180152  56.3653788  50.8534269
  82.3970152  56.3393788  50.3574269  80.6310152  55.2213788  50.7974269
  79.7110152  55.5393788  50.3074269  81.2370152  54.0993788  49.9544269
  82.2880152  53.9933788  50.2244269  80.7080152  53.1733788  50.1804269
  81.1480152  54.3503788  48.4804269  79.9090152  54.4723788  47.8594269
  79.0070152  54.3443788  48.4394269  79.8180152  54.7583788  46.4974269
  78.8500152  54.8503788  46.0274269  80.9740152  54.9253788  45.7454269
  80.9050152  55.1513788  44.6914269  82.2230152  54.8013788  46.3504269
  83.1240152  54.9273788  45.7684269  82.3020152  54.5123788  47.7174269
  83.2700152  54.4133788  48.1864269  80.2360152  54.7363788  52.2024269
  79.0580152  54.4313788  52.4444269  81.1790152  54.7423788  53.1484269
  82.1180152  55.0453788  52.9344269  80.8290152  54.3033788  54.4964269
  80.4210152  53.2963788  54.4144269  82.0610152  54.2033788  55.4134269
  81.7250152  53.8623788  56.3924269  82.7400152  53.4663788  54.9854269
  82.8380152  55.5053788  55.6074269  82.1310152  56.3043788  55.8314269
  83.3670152  55.7373788  54.6834269  83.8470152  55.4163788  56.7374269
  84.2610152  56.4093788  56.9114269  84.6450152  54.7373788  56.4374269
  83.2630152  54.9253788  57.9974269  83.3730152  53.9423788  58.2034269
  82.6010152  55.6643788  58.8924269  82.3930152  56.9643788  58.7034269
  82.7440152  57.4163788  57.8714269  81.8840152  57.4993788  59.3924269
  82.1310152  55.0913788  59.9924269  82.2750152  54.1033788  60.1484269
  81.6290152  55.6423788  60.6744269  79.7380152  55.2113788  55.1054269
  78.8850152  54.7443788  55.8704269  79.7250152  56.4903788  54.7234269
  80.4240152  56.8263788  54.0764269  78.7040152  57.4133788  55.2344269
  78.5740152  57.1693788  56.2884269  79.1420152  58.8643788  55.1154269
  79.4630152  59.0443788  54.0894269  78.2880152  59.5013788  55.3464269
  80.2810152  59.2353788  56.0444269  80.9590152  58.3863788  56.1314269
  79.8740152  59.4773788  57.0264269  81.0510152  60.4273788  55.5234269
  80.7980152  60.8113788  54.3524269  81.8920152  60.9803788  56.2744269
  77.3770152  57.2353788  54.5134269  76.3170152  57.3553788  55.1304269
  77.4360152  56.9633788  53.2104269  78.3360152  56.9073788  52.7554269
  76.2240152  56.7453788  52.4304269  75.6190152  57.6513788  52.4724269
  76.5640152  56.4463788  50.9684269  77.4980152  55.8843788  50.9874269
  75.7620152  55.8063788  50.6004269  76.7520152  57.5383788  49.9054269
  76.6150152  57.0673788  48.9324269  75.7140152  58.6403788  50.0644269
  74.7150152  58.2103788  49.9984269  75.8400152  59.1203788  51.0344269
  75.8440152  59.3793788  49.2734269  78.0960152  58.1043788  49.9504269
  78.2570152  58.5823788  50.9164269  78.8300152  57.3103788  49.8114269
  78.2060152  58.8433788  49.1564269  75.4500152  55.5623788  53.0144269
  74.2240152  55.5783788  53.0344269  76.1760152  54.5563788  53.5094269
  77.1830152  54.6303788  53.4774269  75.5840152  53.3513788  54.0964269
  74.9360152  52.9093788  53.3404269  76.6700152  52.3433788  54.4964269
  77.3740152  52.8473788  55.1584269  76.0740152  51.1523788  55.2794269
  75.5650152  51.5213788  56.1694269  75.3620152  50.6213788  54.6474269
  76.8750152  50.4733788  55.5734269  77.4200152  51.8623788  53.2614269
  76.7460152  51.2543788  52.6584269  77.7380152  52.7313788  52.6854269
  78.6670152  51.0183788  53.6134269  79.3590152  51.6203788  54.2024269
  78.3630152  50.1443788  54.1904269  79.1580152  50.6953788  52.6954269
  74.7740152  53.6983788  55.3324269  73.6290152  53.2733788  55.4584269
  75.3880152  54.4683788  56.2394269  76.3410152  54.7473788  56.0544269
  74.7640152  54.9363788  57.4914269  74.4910152  54.0753788  58.1014269
  75.7680152  55.8263788  58.2954269  76.1280152  56.6103788  57.6294269
  75.0900152  56.4973788  59.5084269  74.2560152  57.1103788  59.1654269
  74.7210152  55.7303788  60.1894269  75.8140152  57.1263788  60.0274269
  76.9270152  54.9653788  58.7854269  76.5560152  54.3043788  59.5694269
  77.2890152  54.3683788  57.9484269  78.0840152  55.7563788  59.3394269
  78.4840152  56.4073788  58.5624269  77.7420152  56.3613788  60.1794269
  78.8630152  55.0723788  59.6774269  73.5130152  55.7573788  57.1494269
  72.4180152  55.4453788  57.5984269  73.6860152  56.7783788  56.3144269
  74.6120152  56.9613788  55.9544269  72.5860152  57.6423788  55.9004269
  72.2560152  58.1253788  56.8204269  73.0560152  58.6893788  54.8954269
  73.6490152  58.1893788  54.1294269  72.1780152  59.1443788  54.4364269
  73.9110152  59.8043788  55.5204269  73.9590152  60.6413788  54.8244269
  74.9160152  59.4193788  55.6954269  73.3350152  60.3013788  56.8494269
  72.2600152  60.9523788  56.8404269  73.9540152  60.0233788  57.9054269
  71.3840152  56.9143788  55.3494269  70.2770152  57.0323788  55.8884269
  71.5950152  56.1383788  54.2954269  72.5210152  56.0633788  53.8994269
  70.4970152  55.3993788  53.7134269  69.6690152  56.0893788  53.5494269
  70.8850152  54.8353788  52.3534269  71.8850152  54.4073788  52.4304269
  70.1740152  54.0523788  52.0894269  70.8900152  55.8643788  51.2544269
  69.7060152  56.2753788  50.6534269  68.7680152  55.8563788  50.9854269
  69.7110152  57.2173788  49.6324269  68.7800152  57.5233788  49.1784269
  70.8920152  57.7603788  49.1984269  70.9000152  58.4913788  48.4034269
  72.0760152  57.3573788  49.7944269  73.0140152  57.7783788  49.4644269
  72.0620152  56.4113788  50.8174269  72.9930152  56.1063788  51.2714269
  69.9810152  54.3223788  54.6684269  68.7920152  53.9653788  54.6384269
  70.8270152  53.8453788  55.5754269  71.7830152  54.1673788  55.6204269
  70.3230152  52.8383788  56.5044269  69.8410152  52.0653788  55.9064269
  71.4460152  52.1833788  57.2924269  71.4700152  52.5973788  58.3004269
  72.3970152  52.3783788  56.7964269  71.2330152  50.7953788  57.3634269
  71.9570152  50.4163788  57.8664269  69.2840152  53.4403788  57.4574269
  68.2700152  52.8093788  57.7314269  69.5420152  54.6503788  57.9654269
  70.4070152  55.1093788  57.7184269  68.6050152  55.3353788  58.8734269
  68.4830152  54.7143788  59.7614269  69.1310152  56.7073788  59.3084269
  69.3090152  57.2923788  58.4054269  68.3520152  57.1843788  59.9024269
  70.4170152  56.7303788  60.1324269  70.2880152  56.1273788  61.0314269
  71.2390152  56.3283788  59.5404269  70.7230152  58.1783788  60.5234269
  69.9050152  58.5453788  61.1434269  70.7840152  58.7733788  59.6124269
  72.0130152  58.3513788  61.2894269  72.7570152  57.6573788  60.8984269
  71.8350152  58.1373788  62.3434269  72.5290152  59.7563788  61.1524269
  72.6960152  59.9603788  60.1774269  71.8460152  60.4033788  61.5194269
  73.3920152  59.8493788  61.6684269  67.2800152  55.5423788  58.1444269
  66.2400152  55.2113788  58.6714269  67.3350152  56.0673788  56.9204269
  68.2360152  56.3213788  56.5404269  66.1450152  56.2893788  56.1094269
  65.5010152  56.9613788  56.6764269  66.5080152  56.9173788  54.7544269
  65.5980152  56.9863788  54.1574269  67.2210152  56.2603788  54.2554269
  67.1250152  58.3073788  54.8404269  68.0340152  58.2453788  55.4384269
  66.4130152  58.9723788  55.3294269  67.5360152  58.9893788  53.2644269
  67.7650152  60.4803788  53.7354269  66.8470152  60.8663788  54.1794269
  68.5660152  60.5093788  54.4734269  68.0390152  61.0943788  52.8774269
  65.4280152  54.9853788  55.8294269  64.2230152  54.9583788  55.6574269
  66.1690152  53.8963788  55.7304269  67.1700152  53.9423788  55.8584269
  65.5190152  52.6293788  55.4344269  64.8630152  52.8043788  54.5814269
  66.5410152  51.5763788  55.0594269  67.1270152  51.9253788  54.2094269
  67.2020152  51.3933788  55.9064269  66.0290152  50.6523788  54.7924269
  64.6350152  52.1403788  56.5764269  63.7270152  51.3503788  56.3494269
  64.8840152  52.6303788  57.7884269  65.6320152  53.2983788  57.9054269
  64.1010152  52.2253788  58.9544269  63.9620152  51.1463788  58.8894269
  64.8420152  52.5543788  60.2534269  64.9610152  53.6363788  60.3114269
  64.2320152  52.2103788  61.0884269  66.2100152  51.9223788  60.3774269
  66.7950152  52.1613788  59.4894269  66.0970152  50.8413788  60.4584269
  66.9380152  52.4383788  61.6044269  66.7730152  53.5123788  61.6884269
  68.0040152  52.2423788  61.4924269  66.4620152  51.7893788  62.8194269
  65.6800152  52.2073788  63.3034269  66.9910152  50.6823788  63.3314269
  68.0230152  50.0953788  62.7324269  68.4010152  50.4843788  61.8804269
  68.4290152  49.2603788  63.1294269  66.4970152  50.1673788  64.4514269
  65.7200152  50.6163788  64.9144269  66.8990152  49.3263788  64.8404269
  62.7260152  52.8903788  58.9624269  61.8100152  52.4333788  59.6514269
  62.5810152  53.9483788  58.1674269  63.3670152  54.2563788  57.6124269
  61.3200152  54.6753788  58.0754269  60.4860152  54.0013788  58.2724269
  61.3000152  55.7993788  59.1134269  62.0060152  56.5703788  58.8044269
  61.6070152  55.3893788  60.0754269  59.9340152  56.4303788  59.2714269
  58.9190152  55.7913788  58.9084269  59.8830152  57.5743788  59.7704269
  61.1830152  55.2513788  56.6754269  61.1200152  56.4683788  56.5044269
  61.0340152  54.3673788  55.6664269  60.6820152  52.9733788  56.0124269
  61.4070152  52.5513788  56.7074269  59.6850152  52.9213788  56.4504269
  60.7240152  52.2593788  54.7004269  61.7330152  51.9063788  54.4854269
  60.0360152  51.4143788  54.6994269  60.3020152  53.2823788  53.7064269
  59.2150152  53.3443788  53.6574269  60.6970152  53.0433788  52.7194269
  60.8940152  54.6003788  54.2184269  61.8670152  54.8893788  53.8224269
  60.0090152  55.7523788  53.7734269  60.4310152  56.6203788  53.0194269
  58.7570152  55.7193788  54.2134269  58.4800152  54.9753788  54.8374269
  57.7690152  56.7173788  53.8294269  57.8320152  56.7913788  52.7434269
  56.3940152  56.2413788  54.2564269  56.2880152  56.3753788  55.3334269
  55.6360152  56.8313788  53.7404269  56.1970152  54.7673788  53.9154269
  56.5690152  54.1703788  54.7474269  56.7750152  54.5423788  53.0194269
  54.7600152  54.3843788  53.6614269  53.8280152  55.2563788  54.0434269
  54.4870152  53.3093788  53.1234269  53.5230152  53.0593788  52.9554269
  55.2270152  52.6793788  52.8504269  58.0440152  58.1583788  54.2534269
  57.4870152  59.0883788  53.6744269  58.9360152  58.3513788  55.2184269
  59.3680152  57.5553788  55.6654269  59.3000152  59.7003788  55.6414269
  58.3940152  60.3053788  55.6794269  59.9500152  59.6743788  57.0284269
  59.1960152  59.3603788  57.7494269  60.7600152  58.9453788  57.0094269
  60.5260152  61.0103788  57.4954269  59.7330152  61.7573788  57.4994269
  61.3120152  61.3193788  56.8064269  61.1110152  60.8983788  58.8994269
  61.9000152  60.1463788  58.8904269  60.3210152  60.5883788  59.5834269
  61.6730152  62.1623788  59.3744269  61.6850152  62.9423788  58.7324269
  62.1700152  62.3553788  60.5954269  62.1650152  61.3753788  61.4884269
  61.7220152  60.4943788  61.2694269  62.6040152  61.5093788  62.3884269
  62.7540152  63.5033788  60.8974269  62.8230152  64.2333788  60.2024269
  63.1310152  63.6503788  61.8224269  60.2930152  60.2883788  54.6544269
  60.5160152  61.5063788  54.6354269  60.8890152  59.4203788  53.8324269
  60.6360152  58.4433788  53.8694269  61.8990152  59.8663788  52.8834269
  61.9360152  60.9453788  53.0304269  63.2300152  59.2093788  53.2124269
  63.1310152  58.1303788  53.0944269  63.9890152  59.5823788  52.5244269
  63.6570152  59.5093788  54.6184269  64.2200152  60.7423788  54.9524269
  64.3780152  61.4813788  54.1804269  64.5800152  61.0333788  56.2634269
  65.0200152  61.9893788  56.5074269  64.3700152  60.0853788  57.2564269
  64.7230152  60.3463788  58.5694269  65.1060152  61.2133788  58.7224269
  63.8090152  58.8573788  56.9374269  63.6410152  58.1203788  57.7094269
  63.4640152  58.5793788  55.6224269  63.0370152  57.6183788  55.3784269
  61.5820152  59.7793788  51.4004269  62.2000152  60.4873788  50.6244269
  60.6750152  58.8873788  51.0004269  60.2660152  58.2613788  51.6794269
  60.2570152  58.7933788  49.5934269  60.6560152  59.6433788  49.0404269
  60.8080152  57.5263788  48.9234269  60.4620152  56.6623788  49.4914269
  60.4120152  57.4773788  47.9094269  62.3370152  57.4653788  48.8434269
  62.7490152  57.6413788  49.8374269  62.8080152  56.0973788  48.4094269
  62.4480152  55.3483788  49.1154269  62.4180152  55.8773788  47.4154269
  63.8980152  56.0793788  48.3844269  62.8440152  58.5513788  47.9134269
  62.4410152  58.3903788  46.9134269  62.5230152  59.5253788  48.2824269
  63.9330152  58.5183788  47.8754269  58.7250152  58.7953788  49.5534269
  58.0830152  58.0813788  50.3234269  58.1310152  59.5943788  48.6754269
  58.6880152  60.1663788  48.0574269  56.6700152  59.6473788  48.6014269
  56.2530152  59.0713788  49.4274269  56.1480152  61.1183788  48.7964269
  55.0740152  61.0643788  48.9744269  56.8780152  61.7563788  49.9714269
  56.7070152  61.1643788  50.8704269  57.9460152  61.7933788  49.7584269
  56.5030152  62.7683788  50.1264269  56.3950152  61.9773788  47.5664269
  57.4660152  62.0393788  47.3764269  55.8980152  61.5303788  46.7054269
  55.9970152  62.9783788  47.7364269  56.1580152  58.9733788  47.3184269
  56.2100152  59.5323788  46.2164269  55.6960152  57.7393788  47.4584269
  55.6590152  57.3183788  48.3754269  55.2390152  56.9843788  46.2934269
  55.3860152  57.5993788  45.4064269  56.0610152  55.6893788  46.1494269
  55.9430152  55.1013788  47.0594269  55.5590152  54.8573788  44.9874269
  54.5090152  54.6113788  45.1434269  55.6660152  55.4233788  44.0624269
  56.1410152  53.9383788  44.9204269  57.5400152  56.0283788  45.9644269
  57.6850152  56.4193788  44.9574269  57.8170152  56.7903788  46.6924269
  58.4460152  54.8233788  46.1534269  58.3240152  54.4323788  47.1634269
  58.1800152  54.0523788  45.4304269  59.4830152  55.1213788  46.0014269
  53.7620152  56.6623788  46.3994269  53.3340152  56.0273788  47.3724269
  53.0050152  57.0383788  45.3634269  53.4500152  57.4733788  44.5674269
  51.5530152  56.8423788  45.3404269  51.1700152  57.6363788  45.9814269
  50.9850152  57.0193788  43.9284269  51.5770152  56.4173788  43.2384269
  49.9530152  56.6683788  43.9234269  51.0080152  58.4873788  43.4454269
  52.0440152  58.8243788  43.4244269  50.4440152  59.0903788  44.1564269
  50.4060152  58.6973788  42.0524269  50.1390152  57.5963788  41.3484269
  50.1930152  59.8383788  41.6154269  49.8020152  59.9603788  40.6924269
  50.4100152  60.6453788  42.1824269  51.0410152  55.5713788  45.9954269
  50.3200152  55.6383788  46.9924269  51.4710152  54.4203788  45.5084269
  52.1130152  54.4023788  44.7284269  51.0100152  53.1863788  46.1074269
  49.9360152  53.2743788  46.2704269  51.2050152  52.3783788  45.4014269
  51.6500152  52.8153788  47.4254269  50.9900152  52.7583788  48.4624269
  52.9550152  52.5833788  47.3724269  53.4210152  52.6933788  46.4834269
  53.7560152  52.1793788  48.5224269  54.7090152  51.8503788  48.1074269
  54.0500152  53.3513788  49.4514269  53.6310152  53.1363788  50.4344269
  53.5840152  54.2493788  49.0454269  55.5390152  53.5933788  49.5944269
  56.2870152  52.5913788  49.5554269  55.9590152  54.7683788  49.7294269
  53.2250152  50.9483788  49.2654269  52.9590152  50.9623788  50.4774269
  53.1100152  49.8843788  48.4714269  53.3740152  50.0113788  47.5044269
  52.6430152  48.5553788  48.8524269  53.3040152  48.0393788  49.5494269
  51.2900152  48.6323788  49.5704269  51.3530152  49.4103788  50.3314269
  50.5310152  48.9023788  48.8364269  50.8540152  47.3373788  50.2504269
  50.3320152  47.5883788  51.1734269  51.7430152  46.7513788  50.4834269
  49.9320152  46.4943788  49.3884269  48.9080152  47.0293788  48.9144269
  50.2280152  45.2973788  49.1914269  52.5200152  47.8473788  47.4904269
  53.5300152  47.3963788  46.9284269  51.3110152  47.8423788  46.9224269
  50.5410152  48.2793788  47.4074269  51.0670152  47.2213788  45.6144269
  52.0500152  47.2243788  45.1424269  50.5270152  45.7963788  45.7694269
  49.8710152  45.7763788  46.6394269  49.9520152  45.5543788  44.8754269
  51.5850152  44.7223788  45.9534269  51.8370152  44.6443788  47.0114269
  52.4750152  44.9953788  45.3864269  51.0700152  43.3753788  45.4604269
  50.1530152  43.1293788  45.9964269  51.8240152  42.6133788  45.6604269
  50.7890152  43.4013788  44.0254269  51.0990152  44.2083788  43.5024269
  50.1550152  42.4413788  43.3574269  49.7180152  41.3603788  43.9894269
  49.8700152  41.2603788  44.9834269  49.2340152  40.6373788  43.4774269
  49.9520152  42.5653788  42.0524269  50.2790152  43.3883788  41.5664269
  49.4710152  41.8363788  41.5444269  50.1270152  47.9963788  44.6794269
  50.3870152  48.0913788  43.4724269  49.0500152  48.5493788  45.2434269
  48.9310152  48.4553788  46.2414269  48.0290152  49.2883788  44.4854269
  47.4050152  49.8143788  45.2074269  48.6470152  50.3353788  43.5484269
  47.9290152  50.5483788  42.7564269  49.5510152  49.9093788  43.1134269
  49.0130152  51.6363788  44.2104269  49.8190152  51.4513788  44.9204269
  48.1400152  52.0143788  44.7424269  49.5580152  52.8883788  43.0304269
  48.0760152  53.8883788  42.8954269  47.2540152  53.2723788  42.5304269
  47.8200152  54.2923788  43.8744269  48.2530152  54.7073788  42.1984269
  47.1890152  48.3143788  43.6694269  47.0570152  48.4583788  42.4484269
  46.2370152  47.8033788  44.4934269  46.4280152  47.8893788  45.4814269
  45.0000152  47.1593788  44.1604269  45.0110152  46.6903788  43.1764269
  44.6540152  46.0663788  45.1844269  43.6410152  45.7183788  44.9814269
  44.6930152  46.5083788  46.1794269  45.5710152  44.8753788  45.1644269
  45.3070152  43.5633788  44.9114269  44.3260152  43.1663788  44.6964269
  46.4630152  42.8083788  44.9674269  46.5660152  41.7433788  44.8174269
  47.4100152  43.6783788  45.2444269  46.9280152  44.9423788  45.3854269
  47.4990152  45.8273788  45.6244269  44.0110152  48.3013788  44.3524269
  44.1750152  49.0943788  45.2804269  43.0120152  48.4823788  43.4554269
  42.9330152  47.8443788  42.6764269  42.0540152  49.5623788  43.5774269
  42.3510152  50.1343788  44.4564269  42.0370152  50.5453788  42.3694269
  41.9320152  49.9433788  41.4664269  41.1600152  51.1823788  42.4854269
  43.2620152  51.4843788  42.1564269  42.9850152  52.1883788  41.3714269
  43.5470152  52.3233788  43.4134269  42.6520152  52.8813788  43.6884269
  43.8300152  51.6643788  44.2334269  44.3610152  53.0193788  43.2094269
  44.4980152  50.7783788  41.5754269  44.8640152  50.0403788  42.2894269
  44.2280152  50.2793788  40.6444269  45.2780152  51.5143788  41.3804269
  40.6700152  48.9633788  43.6904269  40.4880152  47.8053788  43.3134269
  39.7090152  49.6803788  44.2784269  40.0390152  50.3823788  45.5094269
  40.9910152  50.0283788  45.9044269  40.0970152  51.4563788  45.3294269
  38.9030152  50.0663788  46.4924269  39.1490152  49.1983788  47.1044269
  38.6990152  50.9203788  47.1384269  37.7030152  49.7703788  45.5824269
  37.1390152  50.6803788  45.3784269  37.0460152  49.0303788  46.0384269
  38.3260152  49.2233788  44.3024269  38.2980152  48.1343788  44.2724269
  37.5490152  49.7043788  43.1024269  37.9490152  50.7173788  42.5364269
  36.4300152  49.0203788  42.7294269  36.1800152  48.2043788  43.2694269
  35.5700152  49.3753788  41.6144269  35.3000152  50.4223788  41.7564269
  36.2600152  49.2853788  40.2444269  37.1350152  49.9343788  40.2504269
  35.5620152  49.6223788  39.4784269  36.6720152  47.9723788  39.9354269
  37.6250152  47.9863788  39.8224269  34.3360152  48.4913788  41.6204269
  34.3260152  47.4943788  42.3384269  33.2720152  48.7983788  40.8684269
  33.3320152  49.6513788  39.6874269  33.4350152  50.6963788  39.9794269
  34.1740152  49.3653788  39.0564269  32.0080152  49.4343788  38.9414269
  31.6250152  50.3763788  38.5494269  32.1360152  48.7253788  38.1234269
  31.0660152  48.8653788  40.0164269  30.3160152  48.2113788  39.5724269
  30.5710152  49.6653788  40.5664269  32.0100152  48.0813788  40.9224269
  31.6840152  48.0233788  41.9614269  32.0690152  46.6433788  40.4854269
  32.7080152  46.3603788  39.4684269  31.3800152  45.7383788  41.2274269
  30.8550152  46.0673788  42.0244269  31.3650152  44.3273788  40.9274269
  31.5180152  44.2513788  39.8504269  32.3920152  43.5703788  41.6864269
  32.3890152  42.5283788  41.3684269  33.7880152  44.1313788  41.4254269
  34.0160152  44.0593788  40.3614269  33.8230152  45.1763788  41.7344269
  34.5220152  43.5593788  41.9934269  32.0810152  43.6743788  43.0614269
  32.0960152  44.6063788  43.2924269  30.0820152  43.7363788  41.4444269
  29.1170152  44.4333788  41.7364269  30.0590152  42.3923788  41.5624269
  30.8370152  41.8663788  41.1894269  28.9870152  41.6683788  42.1904269
  28.0700152  42.2563788  42.1524269  28.7050152  40.3283788  41.4904269
  28.3460152  40.5003788  40.4754269  27.9610152  39.7603788  42.0484269
  30.0300152  39.5773788  41.4614269  30.8660152  39.9053788  40.5764269
  30.2440152  38.7103788  42.3524269  29.4630152  41.3743788  43.5904269
  30.4570152  41.9443788  44.0464269  28.7860152  40.4853788  44.3454269
  27.9170152  40.0743788  44.0354269  29.3720152  40.1563788  45.6174269
  29.7350152  41.0603788  46.1074269  28.3590152  39.5133788  46.5614269
  28.8220152  39.3543788  47.5354269  28.0390152  38.5563788  46.1504269
  27.2320152  40.3643788  46.7084269  27.3850152  41.1443788  46.1704269
  30.4750152  39.1693788  45.3254269  30.2220152  38.0773788  44.8154269
  31.7400152  39.5793788  45.5974269  31.8620152  40.4633788  46.0704269
  32.9220152  38.8253788  45.2504269  32.6680152  37.7723788  45.3684269
  33.3690152  39.0763788  43.7854269  32.5640152  38.7833788  43.1114269
  34.2560152  38.4783788  43.5754269  33.6980152  40.5593788  43.5604269
  34.8700152  40.8383788  42.9344269  32.9480152  41.4473788  43.9514269
  33.1960152  42.4163788  43.8104269  32.0820152  41.2093788  44.4144269
  34.0710152  39.2213788  46.1564269  33.9060152  40.0273788  47.0714269
  35.2910152  38.6543788  45.9314269  35.3880152  37.9523788  45.2114269
  36.4490152  39.0443788  46.7094269  36.1720152  38.9623788  47.7604269
  37.7000152  38.1483788  46.5164269  37.8500152  37.9793788  45.4504269
  38.5680152  38.6633788  46.9274269  37.5560152  36.8213788  47.2014269
  37.7450152  36.7153788  48.5624269  37.9910152  37.5973788  49.1354269
  37.6250152  35.5033788  49.2024269  37.7710152  35.4403788  50.2704269
  37.3200152  34.3733788  48.4824269  37.2220152  33.4213788  48.9824269
  37.1410152  34.4623788  47.1234269  36.9040152  33.5773788  46.5514269
  37.2630152  35.6783788  46.4894269  37.1270152  35.7373788  45.4194269
  36.8200152  40.4353788  46.2594269  37.0910152  40.6583788  45.0794269
  36.7800152  41.4053788  47.2104269  36.6120152  41.0953788  48.1574269
  36.9500152  42.8333788  47.0244269  36.4840152  42.8763788  46.0404269
  36.1660152  43.7233788  48.0354269  36.2490152  43.3223788  49.0454269
  36.5410152  44.7463788  48.0184269  34.7410152  43.6723788  47.5594269
  34.4300152  44.2333788  46.3444269  35.2090152  44.7133788  45.7704269
  33.1510152  44.1983788  45.8414269  32.9420152  44.6453788  44.8804269
  32.1350152  43.5993788  46.5504269  30.8190152  43.5633788  46.0234269
  30.7300152  43.1053788  45.1844269  32.4290152  43.0473788  47.7754269
  31.6450152  42.5793788  48.3524269  33.7180152  43.0853788  48.2774269
  33.9270152  42.6503788  49.2434269  38.3320152  43.4253788  46.7564269
  38.3920152  44.4273788  46.0454269  39.4720152  42.8793788  47.2604269
  39.4420152  41.9603788  47.6794269  40.7360152  43.6043788  47.2034269
  40.4440152  44.4643788  47.8074269  41.9610152  42.8863788  47.8454269
  41.6210152  42.3093788  48.7054269  42.4020152  42.2143788  47.1094269
  43.0390152  43.8933788  48.3124269  42.6550152  44.3793788  49.2084269
  43.1520152  44.6313788  47.5184269  44.4510152  43.3743788  48.6504269
  45.0110152  43.1793788  47.7364269  44.3870152  42.4593788  49.2394269
  45.1130152  44.4593788  49.4454269  44.5270152  44.9903788  50.0734269
  46.4410152  44.7963788  49.3984269  47.3230152  44.2843788  48.4934269
  48.2910152  44.5733788  48.5114269  47.0090152  43.6153788  47.8044269
  46.9160152  45.6973788  50.3094269  46.2930152  46.0983788  50.9954269
  47.8900152  45.9623788  50.2964269  41.1890152  44.0893788  45.8334269
  41.7140152  45.1973788  45.7674269  41.0570152  43.3523788  44.7074269
  40.6190152  42.4423788  44.7004269  41.5950152  43.9723788  43.5074269
  41.9900152  44.9313788  43.8444269  42.7130152  43.1453788  42.8494269
  43.5100152  42.9713788  43.5724269  42.3090152  42.1893788  42.5164269
  43.1120152  43.6893788  41.9934269  40.5320152  44.1383788  42.4604269
  39.9550152  43.1533788  42.0014269  40.2620152  45.3903788  42.0144269
  40.7840152  46.1823788  42.3614269  39.2020152  45.5753788  41.0234269
  39.0540152  44.6273788  40.5074269  37.8990152  45.9953788  41.7134269
  38.0850152  46.9443788  42.2164269  37.1480152  46.1373788  40.9364269
  37.3140152  45.0303788  42.7504269  38.0730152  44.7943788  43.4964269
  36.1290152  45.6773788  43.4914269  36.4660152  46.5833788  43.9944269
  35.3460152  45.9283788  42.7754269  35.7360152  44.9773788  44.2284269
  36.8840152  43.7403788  42.0434269  36.1250152  43.9713788  41.2964269
  37.7480152  43.2883788  41.5564269  36.4740152  43.0443788  42.7754269
  39.5960152  46.6453788  40.0054269  39.2310152  47.8243788  40.1524269
  40.3360152  46.2253788  38.9804269  40.5880152  45.2483788  38.9284269
  40.7940152  47.1273788  37.9304269  41.4990152  47.8243788  38.3834269
  41.5200152  46.3503788  36.8264269  41.3780152  46.8773788  35.8834269
  41.0780152  45.3563788  36.7564269  43.0050152  46.1983788  37.0714269
  43.1670152  46.0493788  38.1394269  43.5050152  47.1133788  36.7524269
  43.7290152  44.8103788  36.1824269  43.9490152  45.5123788  34.5504269
  42.9820152  45.8213788  34.1544269  44.6090152  46.3773788  34.6124269
  44.3900152  44.7653788  33.8904269  39.6480152  47.9573788  37.3504269
  38.8540152  47.4733788  36.5274269  39.5780152  49.2123788  37.7944269
  40.2610152  49.5283788  38.4684269  38.5530152  50.1473788  37.3444269
  37.5720152  49.7203788  37.5534269  38.6910152  51.4873788  38.0744269
  37.8230152  52.1033788  37.8394269  39.5950152  51.9843788  37.7224269
  38.7790152  51.3293788  39.5764269  39.7510152  50.6913788  40.0514269
  37.8880152  51.8643788  40.2754269  38.7330152  50.3943788  35.8624269
  37.7650152  50.3563788  35.0904269  39.9840152  50.6463788  35.4764269
  40.7220152  50.6253788  36.1654269  40.3210152  50.9513788  34.0884269
  41.4000152  51.0533788  33.9734269  39.8820152  49.8003788  33.1584269
  39.3230152  49.0783788  33.7534269  39.2320152  50.2163788  32.3884269
  41.0330152  49.0563788  32.4614269  40.7310152  48.0203788  32.3064269
  41.9080152  49.0863788  33.1114269  41.4140152  49.6613788  31.1034269
  40.5000152  49.9243788  30.2784269  42.6300152  49.8563788  30.8534269
  39.6430152  52.2903788  33.7074269  39.3960152  52.5813788  32.5244269
  39.3580152  53.0963788  34.7364269  39.5990152  52.7863788  35.6664269
  38.7150152  54.4063788  34.5874269  38.9180152  54.7643788  33.5784269
  37.1910152  54.2953788  34.7884269  37.0100152  54.0003788  35.8224269
  36.7570152  55.2793788  34.6104269  36.4690152  53.2883788  33.8764269
  35.4370152  53.1933788  34.2154269  36.9700152  52.3243788  33.9614269
  36.4590152  53.7013788  32.4034269  36.0490152  54.8463788  32.1024269
  36.8510152  52.8753788  31.5474269  39.2820152  55.3983788  35.6114269
  39.9090152  55.0023788  36.6014269  39.0140152  56.6843788  35.3864269
  38.4530152  56.9333788  34.5844269  39.5060152  57.7493788  36.2634269
  40.2920152  57.3453788  36.9014269  40.0890152  58.8963788  35.4144269
  40.7120152  59.5203788  36.0544269  39.2650152  59.4903788  35.0194269
  40.9440152  58.3953788  34.2334269  40.3560152  58.0643788  33.1714269
  42.1950152  58.3393788  34.3654269  38.3760152  58.2713788  37.1634269
  37.9860152  59.4443788  37.0784269  37.8850152  57.4123788  38.0574269
  38.2780152  56.4843788  38.1244269  36.7830152  57.7953788  38.9444269
  36.8680152  58.8803788  38.9944269  35.4600152  57.3203788  38.3464269
  34.7730152  57.0923788  39.1614269  35.6470152  56.4173788  37.7654269
  34.8140152  58.3453788  37.4464269  33.8940152  57.9233788  37.0414269
  35.4990152  58.5733788  36.6304269  34.4080152  59.9023788  38.3224269
  33.8470152  59.2973788  39.9404269  32.9830152  58.6473788  39.8054269
  34.6510152  58.7373788  40.4184269  33.5700152  60.1443788  40.5684269
  36.8540152  57.3593788  40.4044269  36.9980152  56.1763788  40.7024269
  36.6660152  58.3143788  41.3104269  36.4900152  59.2623788  41.0084269
  36.7110152  58.0073788  42.7374269  36.9450152  56.9433788  42.7784269
  37.8330152  58.7923788  43.4474269  38.7940152  58.3883788  43.1284269
  37.7220152  58.6593788  44.5234269  37.8090152  60.2833788  43.1394269
  38.0780152  60.6573788  41.9714269  37.5390152  61.0743788  44.0754269
  35.3780152  58.1183788  43.4824269  35.3410152  58.1053788  44.7184269
  34.2920152  58.2533788  42.7254269  34.4000152  58.3303788  41.7244269
  32.9450152  58.2933788  43.2974269  33.0140152  58.3983788  44.3804269
  32.1510152  59.5073788  42.8024269  31.0950152  59.2413788  42.7644269
  32.4960152  59.7653788  41.8014269  32.3160152  60.7283788  43.7064269
  31.8260152  60.7073788  44.8554269  32.9300152  61.7223788  43.2624269
  32.2320152  56.9723788  42.9414269  31.0090152  56.8523788  43.0014269
  33.0260152  55.9823788  42.5574269  34.0200152  56.1493788  42.4954269
  32.5130152  54.6683788  42.2234269  31.6400152  54.7783788  41.5804269
  33.5680152  53.8333788  41.4414269  33.5960152  54.1993788  40.4154269
  34.9380152  53.9983788  42.0574269  35.2150152  55.0523788  42.0504269
  34.9210152  53.6343788  43.0844269  35.6660152  53.4273788  41.4814269
  33.1830152  52.3603788  41.4274269  33.1520152  51.9833788  42.4494269
  32.2010152  52.2453788  40.9684269  33.9200152  51.7973788  40.8544269
  32.1310152  53.9533788  43.5174269  32.8390152  54.0423788  44.5264269
  30.9800152  53.2953788  43.5014269  30.4150152  53.3063788  42.6644269
  30.5150152  52.5593788  44.6634269  31.3440152  52.3823788  45.3484269
  29.4700152  53.3683788  45.4964269  29.8270152  54.3953788  45.5764269
  28.1200152  53.4123788  44.8114269  28.2290152  53.8573788  43.8224269
  27.7290152  52.3993788  44.7134269  27.4300152  54.0123788  45.4054269
  29.3460152  52.7833788  46.8764269  28.9900152  51.7553788  46.8044269
  30.3200152  52.7963788  47.3654269  28.6390152  53.3733788  47.4594269
  29.9590152  51.2333788  44.1714269  29.3180152  51.1623788  43.1414269
  30.2670152  50.1673788  44.8804269  30.8290152  50.2683788  45.7134269
  29.8100152  48.8533788  44.4814269  29.9910152  48.7163788  43.4154269
  30.5930152  47.8013788  45.2604269  30.2920152  47.8473788  46.3074269
  31.6560152  48.0263788  45.1774269  30.3570152  46.4113788  44.7554269
  29.2900152  45.8553788  45.0704269  31.2330152  45.8753788  44.0464269
  28.3000152  48.7003788  44.6914269  27.7320152  49.2453788  45.6374269
  27.6560152  47.9573788  43.7944269  28.1820152  47.5353788  43.0424269
  26.2190152  47.7323788  43.8604269  25.7730152  48.7203788  43.7484269
  25.7750152  46.8183788  42.7374269  26.0860152  47.2393788  41.7814269
  26.2300152  45.8363788  42.8664269  24.6890152  46.7213788  42.7554269
  25.7050152  47.2093788  45.1984269  24.6590152  47.6473788  45.6624269
  26.3890152  46.2603788  45.8264269  27.2360152  45.8673788  45.4414269
  25.8470152  45.8213788  47.1004269  24.7730152  45.8293788  46.9154269
  26.1960152  44.3663788  47.4544269  25.4940152  43.7093788  46.9414269
  26.0910152  44.2393788  48.5314269  27.5890152  43.9683788  47.0644269
  28.5320152  44.7183788  47.3814269  27.7430152  42.8703788  46.4844269
  25.9770152  46.8013788  48.2734269  25.6270152  46.4813788  49.4054269
  26.3990152  48.0273788  47.9664269  26.6480152  48.2223788  47.0074269
  26.5200152  49.1063788  48.9484269  26.2620152  48.6953788  49.9244269
  27.9420152  49.6493788  49.0324269  28.4100152  49.5233788  48.0564269
  27.8840152  50.7113788  49.2734269  28.8240152  48.9833788  50.0634269
  28.2200152  48.7503788  50.9404269  29.6170152  49.6763788  50.3424269
  29.4530152  47.7103788  49.5614269  30.3160152  47.7933788  48.6654269
  29.0940152  46.6263788  50.0644269  25.5660152  50.2453788  48.5744269
  25.4280152  51.2163788  49.3084269  24.9240152  50.1323788  47.4154269
  25.1030152  49.3283788  46.8314269  23.9710152  51.1353788  46.9654269
  24.0890152  52.0513788  47.5434269  24.2090152  51.4943788  45.5004269
  25.2700152  51.6993788  45.3574269  23.9160152  50.6473788  44.8804269
  23.4230152  52.6993788  45.0734269  23.7830152  53.9593788  45.5144269
  24.6780152  54.0763788  46.1074269  23.0210152  55.0733788  45.2114269
  23.3190152  56.0483788  45.5664269  21.8850152  54.9313788  44.4574269
  21.1260152  56.0483788  44.1914269  20.3350152  55.8873788  43.6724269
  21.5040152  53.6823788  43.9934269  20.6110152  53.5733788  43.3954269
  22.2760152  52.5743788  44.3014269  21.9820152  51.6013788  43.9364269
  22.5670152  50.5603788  47.1584269  22.0970152  49.7473788  46.3504269
  21.9050152  50.9943788  48.2314269  22.3410152  51.6843788  48.8254269
  20.5660152  50.5063788  48.5814269  20.3940152  49.6513788  47.9274269
  20.5410152  50.0793788  50.0574269  20.6880152  50.9673788  50.6714269
  19.5630152  49.6473788  50.2704269  21.6170152  49.0463788  50.4394269
  22.5820152  49.4343788  50.1124269  21.6710152  48.8453788  51.9174269
  21.8770152  49.7973788  52.4064269  20.7140152  48.4573788  52.2664269
  22.4610152  48.1343788  52.1584269  21.3570152  47.7283788  49.7444269
  20.3930152  47.3323788  50.0654269  21.3460152  47.8823788  48.6654269
  22.1450152  47.0203788  50.0024269  19.3960152  51.4433788  48.2544269
  19.5870152  52.6363788  47.9844269  18.1920152  50.8683788  48.3024269
  18.1580152  49.8973788  48.5784269  16.9090152  51.5193788  47.9894269
  16.8250152  51.3273788  46.9194269  15.7150152  50.8453788  48.7854269
  14.8540152  50.8633788  48.1174269  16.0750152  49.4123788  49.1664269
  16.3170152  48.8473788  48.2664269  16.9370152  49.4193788  49.8334269
  15.2280152  48.9473788  49.6714269  15.3450152  51.6093788  50.0614269
  15.1690152  50.8863788  50.8574269  16.1820152  52.2523788  50.3334269
  14.0990152  52.4763788  49.9144269  14.2640152  53.2213788  49.1364269
  13.2500152  51.8493788  49.6424269  13.8920152  52.9783788  50.8594269
  16.8140152  53.0663788  48.0084269  16.7920152  53.6993788  49.0714269
  16.8830152  53.6973788  46.8194269  17.3690152  53.1223788  45.5504269
  18.4250152  52.8613788  45.6144269  16.7930152  52.2403788  45.2714269
  17.1420152  54.2623788  44.5654269  17.8010152  54.1753788  43.7014269
  16.1050152  54.2943788  44.2294269  17.4820152  55.4583788  45.3874269
  17.0900152  56.3693788  44.9354269  18.5600152  55.5523788  45.5174269
  16.7900152  55.1613788  46.7204269  17.2430152  55.6793788  47.5664269
  15.3280152  55.6203788  46.6954269  14.4090152  54.8123788  46.5014269
  15.0960152  56.8563788  46.6114269  39.6312124  54.2855760  28.4506241
  28.6312124  42.2855760  51.4506241  34.6312124  60.2855760  48.4506241
  35.6312124  48.2855760  31.4506241  35.6312124  64.2855760  40.4506241
  44.6312124  55.2855760  36.4506241 117.1256130  84.4590290  67.2774360
 116.3498230  83.9790730  67.5672930 117.7769060  83.7795940  67.1030520
 111.1421960  84.7710100  68.1550120 110.3106840  84.5158810  68.5546630
 111.7502940  84.8420870  68.8908040 111.1223220  88.8050190  68.3508140
 111.4251260  87.9147930  68.1718360 111.8666810  89.3620410  68.1230390
 109.5513910  79.7311990  61.9392510 108.6630610  80.0727960  61.8372390
 109.8355100  79.5312310  61.0473340 107.5146920  82.3317640  67.8232210
 108.0863030  81.5639840  67.8235850 107.5148460  82.6306400  66.9138820
 116.5665120  87.1347480  67.2844520 116.4973400  86.1937420  67.1233650
 117.3284980  87.2248890  67.8567090 108.7571790  77.7402000  69.6101140
 108.5774630  76.8427750  69.8903900 108.3551870  78.2873870  70.2848090
 117.5970290  79.9417860  67.5113450 117.9735110  79.0689740  67.3987120
 117.4989800  80.2776560  66.6203890 111.7275300  78.3143490  62.9730890
 111.8342050  79.2147220  63.2799650 110.8167660  78.2661460  62.6825540
 109.3758460  80.2362500  68.2183480 110.0568570  80.5000870  68.8370880
 109.0606510  79.3963370  68.5521490 113.5683030  81.2829860  67.3056070
 114.0761250  81.7810830  67.9461090 114.0996270  80.5065060  67.1295430
 111.8519130  75.9228420  71.5719490 111.8537570  76.4400810  70.7665390
 111.0223440  75.4458600  71.5489420 113.1021980  85.5623600  69.7492990
 112.7691360  86.1892520  70.3914060 113.2788660  86.0885480  68.9694660
 111.5334460  77.6338380  69.5789940 111.8751270  78.4780430  69.2843810
 110.5950270  77.7822120  69.6955280 112.3141080  87.5304400  71.5642170
 112.9315080  88.2055480  71.2826620 111.4534200  87.9392380  71.4729670
 107.6073420  86.7204260  60.4449020 107.2301400  87.2091360  59.7133920
 107.8646490  87.3929540  61.0755550 115.2162350  75.1220650  65.9034530
 115.5237330  74.5667540  65.1870030 114.2863050  75.2565110  65.7207520
 117.6043110  83.1869480  62.6394650 116.6772390  83.1206860  62.8683120
 117.7567930  84.1249610  62.5249890 117.5912190  79.4586480  59.6361810
 116.6515860  79.6200440  59.7214270 117.9095450  80.1772160  59.0897800
 113.2099750  83.7134220  65.4214380 112.8056750  83.0011470  64.9260280
 113.2962870  83.3687460  66.3102420 113.6781450  87.4001780  67.5853590
 113.3809740  86.7947250  66.9061370 114.6281270  87.4379090  67.4742950
 111.9228370  80.4877430  69.2013420 112.4742960  80.5972770  68.4266670
 112.4371880  80.8615030  69.9168650 112.7699880  87.1383470  74.2361390
 111.8728410  87.3623440  74.4834790 112.7952750  87.2618410  73.2872790
 111.5971100  84.0096790  72.8118760 111.4578870  84.8819590  73.1806160
 110.7152460  83.6669600  72.6666700 113.3951450  89.9518490  75.0203910
 113.3666880  90.3561440  74.1532340 113.2316420  89.0228850  74.8575510
 109.9104380  82.6079200  62.9221030 109.7901980  83.3341290  62.3102300
 109.6005270  81.8382110  62.4448940 107.5489750  85.7794340  68.7289670
 107.6270170  85.9143110  67.7845390 108.1631430  85.0710230  68.9217790
 108.7937380  87.4794530  65.1395850 108.3865460  87.6209120  64.2849450
 109.6850390  87.1954690  64.9367060 107.6049270  86.8208510  71.2684130
 107.7680310  86.3513870  70.4503500 108.0701720  86.3132070  71.9332970
 112.3768040  75.9514270  66.3044700 111.9336190  76.7323810  65.9729220
 112.9353030  76.2744160  67.0115640 116.6637850  78.8182790  71.9080020
 116.2017220  79.0265810  72.7199960 116.2615960  78.0042140  71.6050690
 115.4926860  75.5724970  61.1850530 114.8681040  75.5684840  61.9103840
 115.4056980  74.7055930  60.7886500 114.4143940  76.4961600  68.1634300
 114.7116270  77.4024430  68.0826320 114.9629500  76.0080380  67.5493870
 112.1682260  81.0747840  64.0325950 111.9423180  80.8585010  64.9372570
 111.3874790  81.5076300  63.6871920 114.6081470  81.9733420  74.6986220
 114.5125070  81.0328150  74.5486620 115.4513450  82.1948490  74.3034290
 109.7392010  78.3847090  72.8520000 109.3455400  79.2322300  73.0592780
 109.0510410  77.7473460  73.0428640 107.0409060  76.3075550  66.8850080
 106.7522110  76.8778410  67.5975060 107.7854820  75.8280000  67.2481310
 107.2279290  80.2495670  58.0952800 107.1453960  81.1926430  58.2367790
 106.8762350  80.1070580  57.2165150 115.0277420  78.9834700  67.1623150
 115.0313480  78.5424650  66.3127690 115.9228540  79.3052030  67.2694970
 110.8779800  78.8661190  66.1217360 110.5379850  79.3436420  66.8784410
 110.1157120  78.4126310  65.7618460 115.0897570  79.9846780  60.1529910
 115.2110390  79.9433260  61.1015730 114.7046080  80.8470930  59.9976640
 114.1019070  82.2947920  59.5513210 113.5335970  81.8466170  58.9249120
 114.8108070  82.6540700  59.0178360 109.1788250  86.1959940  73.4279940
 108.7943040  85.5553610  74.0262900 109.4900440  86.8996060  73.9974670
 115.3285390  83.0436480  68.9088560 115.6955520  82.5695050  69.6549900
 115.1390450  83.9178050  69.2496900 108.1925880  77.7880170  65.0382030
 107.9072800  77.4235840  65.8760650 108.1304740  77.0560630  64.4245170
 113.1184760  82.0845120  71.2272770 112.8141830  82.9637100  71.4523130
 114.0731220  82.1444910  71.2630210 111.6466550  86.2906110  61.8239620
 110.8728810  85.7503730  61.6638340 112.3761180  85.7712720  61.4857380
 117.8664470  76.6809430  61.7595400 117.0529080  76.1822600  61.6840710
 117.6726420  77.5207680  61.3431750 117.7873330  85.3580530  73.5035010
 117.7210640  84.4376200  73.2492600 117.1578470  85.4555970  74.2179650
 111.6903950  85.9586490  65.4618430 112.2082620  85.1554750  65.4075320
 111.2387970  85.8965630  66.3035260 116.5773450  87.2252770  60.7345730
 116.9189150  87.9695000  60.2389050 115.7486160  87.5383890  61.0970560
 109.1748490  82.9247860  72.3744130 108.8163430  83.5901710  72.9617470
 108.8803050  82.0931410  72.7456750 112.3761610  83.3832100  75.2583680
 112.0761750  83.5289280  74.3611500 113.1472850  82.8237390  75.1657070
 117.7190060  88.1801100  73.2538810 117.7334600  87.2482060  73.0357720
 117.0115160  88.2660860  73.8928580 115.5464140  87.3066300  63.5061650
 116.2335270  87.8535510  63.8869240 114.7596560  87.8507030  63.5411260
 107.6856540  82.9239120  58.9978730 108.5551390  83.2063920  59.2814650
 107.1946860  83.7374990  58.8827540 114.8491350  84.3112330  63.1187010
 115.3054130  85.1217580  63.3447200 114.4979560  83.9935470  63.9505500
 117.1523960  89.8218670  70.3479310 117.7966180  90.0278050  71.0252730
 117.5153400  89.0607070  69.8950160 110.7503130  74.6549980  63.5909530
 110.6217760  74.6467880  64.5394450 109.9265150  74.9933070  63.2400540
 107.7497060  76.4141100  73.0516230 107.0355580  76.6138020  73.6568840
 108.1692100  75.6380670  73.4231030 116.0282240  88.6737250  75.4380880
 115.7079110  87.9546490  75.9826570 115.3540600  89.3492320  75.5116940
 114.0696410  89.5197700  60.3814030 114.0606510  90.2527390  59.7658540
 113.1494770  89.2729280  60.4740990 109.6703050  84.7412590  61.1260790
 109.0631000  85.4811490  61.1356090 110.1452400  84.8311950  60.2998990
 117.0556010  89.5825940  59.0439220 117.1567990  89.3789930  58.1141200
 116.1557750  89.3284220  59.2487000 114.5781900  80.1406300  63.0263120
 113.8698050  80.6092640  63.4676730 114.8626380  79.4828310  63.6608310
 116.2037830  81.5603000  71.0255650 116.7023080  82.0348820  71.6907500
 116.3460780  80.6366520  71.2325680 112.7816920  78.4491380  60.4013830
 113.6307450  78.8861530  60.3354020 112.4148190  78.7611640  61.2285890
 111.6808340  84.7023740  58.8749360 112.4471610  84.5905100  59.4374790
 111.7583030  84.0061710  58.2226130 110.3755100  82.1348810  59.5582250
 110.4558690  81.1876320  59.6699650 111.2674850  82.4655690  59.6642910
 108.0615290  88.3517770  62.5358300 107.1355070  88.5938910  62.5263710
 108.5271720  89.1792030  62.4143050 107.9025900  83.9563730  74.7938420
 108.4064920  83.3771010  75.3654650 107.1633320  84.2403960  75.3314790
 114.8049520  86.6777920  58.3484710 114.7000160  86.0630270  59.0746090
 114.6373740  86.1543810  57.5647720 114.9563840  85.3634720  74.3273940
 114.1909510  85.9319720  74.2428610 115.1379800  85.0710930  73.4342170
 113.7127370  84.6988870  60.8492000 114.1343790  84.5328740  61.6923390
 113.8378210  83.8889100  60.3547140 111.8754790  80.6785420  73.6562980
 111.3451250  80.1876370  73.0286320 112.5442860  81.1069620  73.1220910
 116.2255010  83.7226480  58.0969100 116.7460670  83.0075500  57.7310250
 116.8723410  84.3612350  58.3969610 112.3627090  77.6447790  73.7360270
 112.2683960  77.0268540  73.0111140 111.7824480  78.3714080  73.5090180
 115.1288530  76.2021030  70.7687660 114.6805830  76.2245290  69.9233210
 114.4953730  75.8040050  71.3657960 115.5348080  85.0975360  71.3900100
 115.9536190  85.9408090  71.2176340 114.6156710  85.2347400  71.1606880
 112.6086270  80.7722100  57.7950160 112.4075330  79.9089460  58.1563500
 112.4378320  80.6855460  56.8571760 114.6380750  79.3712890  74.0313760
 115.2280440  79.0628740  74.7191580 113.8200990  78.8992640  74.1873660
 111.4069070  77.8722720  57.7828040 111.7094970  77.8790150  56.8747190
 112.1463660  77.5220580  58.2795700 114.6254000  76.8157340  58.7684240
 114.2776000  76.1381330  58.1886690 114.8266770  76.3546850  59.5827630
 110.4299200  87.1765140  58.6157840 110.8674070  87.7194810  59.2715420
 110.9146930  86.3512090  58.6254180 107.6445000  89.9654170  66.0678100
 107.9748010  89.0975230  65.8356740 108.0736000  90.1712690  66.8983060
 112.2406920  88.2963180  63.7280070 111.9402460  88.1728150  64.6283980
 112.1344410  87.4371770  63.3195800 107.9659640  83.3444990  65.1648610
 107.3108480  83.0756630  64.5208310 108.8037590  83.2349470  64.7150590
 109.0035570  83.7297560  69.7051950 109.3708610  83.6424960  70.5847970
 108.4346390  82.9664110  69.6058810 108.5551570  80.6406650  73.6110370
 107.6607620  80.6073410  73.9504080 109.0949120  80.8393440  74.3761620
 107.1797720  80.5543920  61.1073940 106.2761800  80.8174120  60.9325600
 107.6638340  80.8255090  60.3273900 109.7224930  79.6109460  59.0168320
 110.4316630  79.1892680  58.5315600 109.0064870  79.6784690  58.3851670
 109.3699090  75.6648790  58.0570970 110.0927220  76.2057730  58.3752190
 109.6423610  75.3912210  57.1812510 109.0591280  74.9154980  67.9593590
 109.7067470  74.3652360  67.5188750 109.4793120  75.1698130  68.7809400
 108.8123280  75.0710650  70.7018910 108.4638100  75.5274470  71.4677090
 108.4810980  74.1767780  70.7841340 110.4187650  88.2430250  74.8672100
 110.3757280  87.8723160  75.7486560 110.5498660  89.1807820  75.0073920
 114.1193680  89.7989840  70.4681820 113.8785040  90.0664400  69.5812340
 115.0596320  89.9695570  70.5232680 116.3248100  76.2622530  74.2238330
 116.2636990  76.8544360  74.9733740 117.2648480  76.1548490  74.0788590
 109.4843920  74.5986850  73.9769680 110.0326910  74.4174900  73.2135790
 109.5499230  73.8080960  74.5125990 109.8887910  88.5550880  70.9377920
 109.1621970  87.9356170  70.8703870 109.9497060  88.9491490  70.0676000
 117.4505520  75.3994570  69.1292820 116.6677310  75.8740070  69.4089580
 117.1568450  74.4949400  69.0206000 108.7945930  75.7042050  61.6506540
 109.5525290  75.8170930  61.0770570 108.3323100  76.5411250  61.6049970
 115.3359740  77.8181320  64.6408850 114.5234250  77.4438210  64.3004730
 115.8401380  77.0626400  64.9430040 111.1671080  76.2306100  60.1908510
 111.6963840  75.4435900  60.0616460 111.7999400  76.9097290  60.4244040
 113.3608920  75.9681240  63.2453900 112.7311660  75.2668550  63.4124030
 112.8214060  76.7285370  63.0287060 113.4864480  75.2465220  75.6806390
 113.2048750  75.7498820  74.9167210 113.8684180  74.4486970  75.3148520
 111.5388370  88.6305610  60.4720400 110.9097250  89.0990710  61.0206230
 111.6536200  87.7854830  60.9066590 117.1256130  84.4590290  48.5030870
 116.3498230  83.9790730  48.7929440 117.7769060  83.7795940  48.3287030
 111.1421960  84.7710100  49.3806630 110.3106840  84.5158810  49.7803140
 111.7502940  84.8420870  50.1164550 111.1223220  88.8050190  49.5764650
 111.4251260  87.9147930  49.3974870 111.8666810  89.3620410  49.3486900
 109.5513910  79.7311990  43.1649020 108.6630610  80.0727960  43.0628900
 109.8355100  79.5312310  42.2729850 107.5146920  82.3317640  49.0488720
 108.0863030  81.5639840  49.0492360 107.5148460  82.6306400  48.1395330
 116.5665120  87.1347480  48.5101030 116.4973400  86.1937420  48.3490160
 117.3284980  87.2248890  49.0823600 108.7571790  77.7402000  50.8357650
 108.5774630  76.8427750  51.1160410 108.3551870  78.2873870  51.5104600
 117.5970290  79.9417860  48.7369960 117.9735110  79.0689740  48.6243630
 117.4989800  80.2776560  47.8460400 111.7275300  78.3143490  44.1987400
 111.8342050  79.2147220  44.5056160 110.8167660  78.2661460  43.9082050
 109.3758460  80.2362500  49.4439990 110.0568570  80.5000870  50.0627390
 109.0606510  79.3963370  49.7778000 113.5683030  81.2829860  48.5312580
 114.0761250  81.7810830  49.1717600 114.0996270  80.5065060  48.3551940
 111.8519130  75.9228420  52.7976000 111.8537570  76.4400810  51.9921900
 111.0223440  75.4458600  52.7745930 113.1021980  85.5623600  50.9749500
 112.7691360  86.1892520  51.6170570 113.2788660  86.0885480  50.1951170
 111.5334460  77.6338380  50.8046450 111.8751270  78.4780430  50.5100320
 110.5950270  77.7822120  50.9211790 112.3141080  87.5304400  52.7898680
 112.9315080  88.2055480  52.5083130 111.4534200  87.9392380  52.6986180
 107.6073420  86.7204260  41.6705530 107.2301400  87.2091360  40.9390430
 107.8646490  87.3929540  42.3012060 115.2162350  75.1220650  47.1291040
 115.5237330  74.5667540  46.4126540 114.2863050  75.2565110  46.9464030
 117.6043110  83.1869480  43.8651160 116.6772390  83.1206860  44.0939630
 117.7567930  84.1249610  43.7506400 117.5912190  79.4586480  40.8618320
 116.6515860  79.6200440  40.9470780 117.9095450  80.1772160  40.3154310
 113.2099750  83.7134220  46.6470890 112.8056750  83.0011470  46.1516790
 113.2962870  83.3687460  47.5358930 113.6781450  87.4001780  48.8110100
 113.3809740  86.7947250  48.1317880 114.6281270  87.4379090  48.6999460
 111.9228370  80.4877430  50.4269930 112.4742960  80.5972770  49.6523180
 112.4371880  80.8615030  51.1425160 112.7699880  87.1383470  55.4617900
 111.8728410  87.3623440  55.7091300 112.7952750  87.2618410  54.5129300
 111.5971100  84.0096790  54.0375270 111.4578870  84.8819590  54.4062670
 110.7152460  83.6669600  53.8923210 113.3951450  89.9518490  56.2460420
 113.3666880  90.3561440  55.3788850 113.2316420  89.0228850  56.0832020
 109.9104380  82.6079200  44.1477540 109.7901980  83.3341290  43.5358810
 109.6005270  81.8382110  43.6705450 107.5489750  85.7794340  49.9546180
 107.6270170  85.9143110  49.0101900 108.1631430  85.0710230  50.1474300
 108.7937380  87.4794530  46.3652360 108.3865460  87.6209120  45.5105960
 109.6850390  87.1954690  46.1623570 107.6049270  86.8208510  52.4940640
 107.7680310  86.3513870  51.6760010 108.0701720  86.3132070  53.1589480
 112.3768040  75.9514270  47.5301210 111.9336190  76.7323810  47.1985730
 112.9353030  76.2744160  48.2372150 116.6637850  78.8182790  53.1336530
 116.2017220  79.0265810  53.9456470 116.2615960  78.0042140  52.8307200
 115.4926860  75.5724970  42.4107040 114.8681040  75.5684840  43.1360350
 115.4056980  74.7055930  42.0143010 114.4143940  76.4961600  49.3890810
 114.7116270  77.4024430  49.3082830 114.9629500  76.0080380  48.7750380
 112.1682260  81.0747840  45.2582460 111.9423180  80.8585010  46.1629080
 111.3874790  81.5076300  44.9128430 114.6081470  81.9733420  55.9242730
 114.5125070  81.0328150  55.7743130 115.4513450  82.1948490  55.5290800
 109.7392010  78.3847090  54.0776510 109.3455400  79.2322300  54.2849290
 109.0510410  77.7473460  54.2685150 116.3137060  78.4682060  57.1473250
 115.6235380  78.2754260  57.7819340 117.0569360  78.7516700  57.6797550
 107.0409060  76.3075550  48.1106590 106.7522110  76.8778410  48.8231570
 107.7854820  75.8280000  48.4737820 107.2279290  80.2495670  39.3209310
 107.1453960  81.1926430  39.4624300 106.8762350  80.1070580  38.4421660
 115.0277420  78.9834700  48.3879660 115.0313480  78.5424650  47.5384200
 115.9228540  79.3052030  48.4951480 110.8779800  78.8661190  47.3473870
 110.5379850  79.3436420  48.1040920 110.1157120  78.4126310  46.9874970
 115.0897570  79.9846780  41.3786420 115.2110390  79.9433260  42.3272240
 114.7046080  80.8470930  41.2233150 114.1019070  82.2947920  40.7769720
 113.5335970  81.8466170  40.1505630 114.8108070  82.6540700  40.2434870
 109.1788250  86.1959940  54.6536450 108.7943040  85.5553610  55.2519410
 109.4900440  86.8996060  55.2231180 115.3285390  83.0436480  50.1345070
 115.6955520  82.5695050  50.8806410 115.1390450  83.9178050  50.4753410
 108.1925880  77.7880170  46.2638540 107.9072800  77.4235840  47.1017160
 108.1304740  77.0560630  45.6501680 113.1184760  82.0845120  52.4529280
 112.8141830  82.9637100  52.6779640 114.0731220  82.1444910  52.4886720
 111.6466550  86.2906110  43.0496130 110.8728810  85.7503730  42.8894850
 112.3761180  85.7712720  42.7113890 117.8664470  76.6809430  42.9851910
 117.0529080  76.1822600  42.9097220 117.6726420  77.5207680  42.5688260
 117.7873330  85.3580530  54.7291520 117.7210640  84.4376200  54.4749110
 117.1578470  85.4555970  55.4436160 111.6903950  85.9586490  46.6874940
 112.2082620  85.1554750  46.6331830 111.2387970  85.8965630  47.5291770
 116.5773450  87.2252770  41.9602240 116.9189150  87.9695000  41.4645560
 115.7486160  87.5383890  42.3227070 109.1748490  82.9247860  53.6000640
 108.8163430  83.5901710  54.1873980 108.8803050  82.0931410  53.9713260
 112.3761610  83.3832100  56.4840190 112.0761750  83.5289280  55.5868010
 113.1472850  82.8237390  56.3913580 117.7190060  88.1801100  54.4795320
 117.7334600  87.2482060  54.2614230 117.0115160  88.2660860  55.1185090
 115.5464140  87.3066300  44.7318160 116.2335270  87.8535510  45.1125750
 114.7596560  87.8507030  44.7667770 107.6856540  82.9239120  40.2235240
 108.5551390  83.2063920  40.5071160 107.1946860  83.7374990  40.1084050
 114.8491350  84.3112330  44.3443520 115.3054130  85.1217580  44.5703710
 114.4979560  83.9935470  45.1762010 117.1523960  89.8218670  51.5735820
 117.7966180  90.0278050  52.2509240 117.5153400  89.0607070  51.1206670
 110.7503130  74.6549980  44.8166040 110.6217760  74.6467880  45.7650960
 109.9265150  74.9933070  44.4657050 107.7497060  76.4141100  54.2772740
 107.0355580  76.6138020  54.8825350 108.1692100  75.6380670  54.6487540
 116.0282240  88.6737250  56.6637390 115.7079110  87.9546490  57.2083080
 115.3540600  89.3492320  56.7373450 114.0696410  89.5197700  41.6070540
 114.0606510  90.2527390  40.9915050 113.1494770  89.2729280  41.6997500
 109.6703050  84.7412590  42.3517300 109.0631000  85.4811490  42.3612600
 110.1452400  84.8311950  41.5255500 117.0556010  89.5825940  40.2695730
 117.1567990  89.3789930  39.3397710 116.1557750  89.3284220  40.4743510
 114.5781900  80.1406300  44.2519630 113.8698050  80.6092640  44.6933240
 114.8626380  79.4828310  44.8864820 116.2037830  81.5603000  52.2512160
 116.7023080  82.0348820  52.9164010 116.3460780  80.6366520  52.4582190
 112.7816920  78.4491380  41.6270340 113.6307450  78.8861530  41.5610530
 112.4148190  78.7611640  42.4542400 111.6808340  84.7023740  40.1005870
 112.4471610  84.5905100  40.6631300 111.7583030  84.0061710  39.4482640
 110.3755100  82.1348810  40.7838760 110.4558690  81.1876320  40.8956160
 111.2674850  82.4655690  40.8899420 108.0615290  88.3517770  43.7614810
 107.1355070  88.5938910  43.7520220 108.5271720  89.1792030  43.6399560
 107.9025900  83.9563730  56.0194930 108.4064920  83.3771010  56.5911160
 107.1633320  84.2403960  56.5571300 114.8049520  86.6777920  39.5741220
 114.7000160  86.0630270  40.3002600 114.6373740  86.1543810  38.7904230
 114.9563840  85.3634720  55.5530450 114.1909510  85.9319720  55.4685120
 115.1379800  85.0710930  54.6598680 109.9348980  82.0993320  56.9145000
 109.9754320  81.8007190  57.8230230 110.7894480  82.5000930  56.7552520
 113.7127370  84.6988870  42.0748510 114.1343790  84.5328740  42.9179900
 113.8378210  83.8889100  41.5803650 111.8754790  80.6785420  54.8819490
 111.3451250  80.1876370  54.2542830 112.5442860  81.1069620  54.3477420
 116.2255010  83.7226480  39.3225610 116.7460670  83.0075500  38.9566760
 116.8723410  84.3612350  39.6226120 112.3627090  77.6447790  54.9616780
 112.2683960  77.0268540  54.2367650 111.7824480  78.3714080  54.7346690
 115.1288530  76.2021030  51.9944170 114.6805830  76.2245290  51.1489720
 114.4953730  75.8040050  52.5914470 115.5348080  85.0975360  52.6156610
 115.9536190  85.9408090  52.4432850 114.6156710  85.2347400  52.3863390
 112.6086270  80.7722100  39.0206670 112.4075330  79.9089460  39.3820010
 112.4378320  80.6855460  38.0828270 114.6380750  79.3712890  55.2570270
 115.2280440  79.0628740  55.9448090 113.8200990  78.8992640  55.4130170
 111.4069070  77.8722720  39.0084550 111.7094970  77.8790150  38.1003700
 112.1463660  77.5220580  39.5052210 114.6254000  76.8157340  39.9940750
 114.2776000  76.1381330  39.4143200 114.8266770  76.3546850  40.8084140
 110.4299200  87.1765140  39.8414350 110.8674070  87.7194810  40.4971930
 110.9146930  86.3512090  39.8510690 107.6445000  89.9654170  47.2934610
 107.9748010  89.0975230  47.0613250 108.0736000  90.1712690  48.1239570
 112.2406920  88.2963180  44.9536580 111.9402460  88.1728150  45.8540490
 112.1344410  87.4371770  44.5452310 107.9659640  83.3444990  46.3905120
 107.3108480  83.0756630  45.7464820 108.8037590  83.2349470  45.9407100
 109.0035570  83.7297560  50.9308460 109.3708610  83.6424960  51.8104480
 108.4346390  82.9664110  50.8315320 108.5551570  80.6406650  54.8366880
 107.6607620  80.6073410  55.1760590 109.0949120  80.8393440  55.6018130
 107.1797720  80.5543920  42.3330450 106.2761800  80.8174120  42.1582110
 107.6638340  80.8255090  41.5530410 109.7224930  79.6109460  40.2424830
 110.4316630  79.1892680  39.7572110 109.0064870  79.6784690  39.6108180
 109.3699090  75.6648790  39.2827480 110.0927220  76.2057730  39.6008700
 109.6423610  75.3912210  38.4069020 109.0591280  74.9154980  49.1850100
 109.7067470  74.3652360  48.7445260 109.4793120  75.1698130  50.0065910
 108.8123280  75.0710650  51.9275420 108.4638100  75.5274470  52.6933600
 108.4810980  74.1767780  52.0097850 110.4187650  88.2430250  56.0928610
 110.3757280  87.8723160  56.9743070 110.5498660  89.1807820  56.2330430
 114.1193680  89.7989840  51.6938330 113.8785040  90.0664400  50.8068850
 115.0596320  89.9695570  51.7489190 116.3248100  76.2622530  55.4494840
 116.2636990  76.8544360  56.1990250 117.2648480  76.1548490  55.3045100
 109.4843920  74.5986850  55.2026190 110.0326910  74.4174900  54.4392300
 109.5499230  73.8080960  55.7382500 109.8887910  88.5550880  52.1634430
 109.1621970  87.9356170  52.0960380 109.9497060  88.9491490  51.2932510
 117.4505520  75.3994570  50.3549330 116.6677310  75.8740070  50.6346090
 117.1568450  74.4949400  50.2462510 108.7945930  75.7042050  42.8763050
 109.5525290  75.8170930  42.3027080 108.3323100  76.5411250  42.8306480
 115.3359740  77.8181320  45.8665360 114.5234250  77.4438210  45.5261240
 115.8401380  77.0626400  46.1686550 111.1671080  76.2306100  41.4165020
 111.6963840  75.4435900  41.2872970 111.7999400  76.9097290  41.6500550
 113.3608920  75.9681240  44.4710410 112.7311660  75.2668550  44.6380540
 112.8214060  76.7285370  44.2543570 113.4864480  75.2465220  56.9062900
 113.2048750  75.7498820  56.1423720 113.8684180  74.4486970  56.5405030
 111.5388370  88.6305610  41.6976910 110.9097250  89.0990710  42.2462740
 111.6536200  87.7854830  42.1323100 117.1256130  84.4590290  29.7287380
 116.3498230  83.9790730  30.0185950 117.7769060  83.7795940  29.5543540
 111.1421960  84.7710100  30.6063140 110.3106840  84.5158810  31.0059650
 111.7502940  84.8420870  31.3421060 111.1223220  88.8050190  30.8021160
 111.4251260  87.9147930  30.6231380 111.8666810  89.3620410  30.5743410
 109.5513910  79.7311990  24.3905530 108.6630610  80.0727960  24.2885410
 109.8355100  79.5312310  23.4986360 107.5146920  82.3317640  30.2745230
 108.0863030  81.5639840  30.2748870 107.5148460  82.6306400  29.3651840
 116.5665120  87.1347480  29.7357540 116.4973400  86.1937420  29.5746670
 117.3284980  87.2248890  30.3080110 108.7571790  77.7402000  32.0614160
 108.5774630  76.8427750  32.3416920 108.3551870  78.2873870  32.7361110
 117.5970290  79.9417860  29.9626470 117.9735110  79.0689740  29.8500140
 117.4989800  80.2776560  29.0716910 111.7275300  78.3143490  25.4243910
 111.8342050  79.2147220  25.7312670 110.8167660  78.2661460  25.1338560
 109.3758460  80.2362500  30.6696500 110.0568570  80.5000870  31.2883900
 109.0606510  79.3963370  31.0034510 113.5683030  81.2829860  29.7569090
 114.0761250  81.7810830  30.3974110 114.0996270  80.5065060  29.5808450
 111.8519130  75.9228420  34.0232510 111.8537570  76.4400810  33.2178410
 111.0223440  75.4458600  34.0002440 113.1021980  85.5623600  32.2006010
 112.7691360  86.1892520  32.8427080 113.2788660  86.0885480  31.4207680
 111.5334460  77.6338380  32.0302960 111.8751270  78.4780430  31.7356830
 110.5950270  77.7822120  32.1468300 112.3141080  87.5304400  34.0155190
 112.9315080  88.2055480  33.7339640 111.4534200  87.9392380  33.9242690
 107.6073420  86.7204260  22.8962040 107.2301400  87.2091360  22.1646940
 107.8646490  87.3929540  23.5268570 115.2162350  75.1220650  28.3547550
 115.5237330  74.5667540  27.6383050 114.2863050  75.2565110  28.1720540
 117.6043110  83.1869480  25.0907670 116.6772390  83.1206860  25.3196140
 117.7567930  84.1249610  24.9762910 117.5912190  79.4586480  22.0874830
 116.6515860  79.6200440  22.1727290 117.9095450  80.1772160  21.5410820
 113.2099750  83.7134220  27.8727400 112.8056750  83.0011470  27.3773300
 113.2962870  83.3687460  28.7615440 113.6781450  87.4001780  30.0366610
 113.3809740  86.7947250  29.3574390 114.6281270  87.4379090  29.9255970
 111.9228370  80.4877430  31.6526440 112.4742960  80.5972770  30.8779690
 112.4371880  80.8615030  32.3681670 112.7699880  87.1383470  36.6874410
 111.8728410  87.3623440  36.9347810 112.7952750  87.2618410  35.7385810
 111.5971100  84.0096790  35.2631780 111.4578870  84.8819590  35.6319180
 110.7152460  83.6669600  35.1179720 113.3951450  89.9518490  37.4716930
 113.3666880  90.3561440  36.6045360 113.2316420  89.0228850  37.3088530
 109.9104380  82.6079200  25.3734050 109.7901980  83.3341290  24.7615320
 109.6005270  81.8382110  24.8961960 107.5489750  85.7794340  31.1802690
 107.6270170  85.9143110  30.2358410 108.1631430  85.0710230  31.3730810
 108.7937380  87.4794530  27.5908870 108.3865460  87.6209120  26.7362470
 109.6850390  87.1954690  27.3880080 107.6049270  86.8208510  33.7197150
 107.7680310  86.3513870  32.9016520 108.0701720  86.3132070  34.3845990
 112.3768040  75.9514270  28.7557720 111.9336190  76.7323810  28.4242240
 112.9353030  76.2744160  29.4628660 116.6637850  78.8182790  34.3593040
 116.2017220  79.0265810  35.1712980 116.2615960  78.0042140  34.0563710
 115.4926860  75.5724970  23.6363550 114.8681040  75.5684840  24.3616860
 115.4056980  74.7055930  23.2399520 114.4143940  76.4961600  30.6147320
 114.7116270  77.4024430  30.5339340 114.9629500  76.0080380  30.0006890
 112.1682260  81.0747840  26.4838970 111.9423180  80.8585010  27.3885590
 111.3874790  81.5076300  26.1384940 114.6081470  81.9733420  37.1499240
 114.5125070  81.0328150  36.9999640 115.4513450  82.1948490  36.7547310
 109.7392010  78.3847090  35.3033020 109.3455400  79.2322300  35.5105800
 109.0510410  77.7473460  35.4941660 116.3137060  78.4682060  38.3729760
 115.6235380  78.2754260  39.0075850 117.0569360  78.7516700  38.9054060
 107.0409060  76.3075550  29.3363100 106.7522110  76.8778410  30.0488080
 107.7854820  75.8280000  29.6994330 107.2279290  80.2495670  20.5465820
 107.1453960  81.1926430  20.6880810 106.8762350  80.1070580  19.6678170
 115.0277420  78.9834700  29.6136170 115.0313480  78.5424650  28.7640710
 115.9228540  79.3052030  29.7207990 110.8779800  78.8661190  28.5730380
 110.5379850  79.3436420  29.3297430 110.1157120  78.4126310  28.2131480
 115.0897570  79.9846780  22.6042930 115.2110390  79.9433260  23.5528750
 114.7046080  80.8470930  22.4489660 114.1019070  82.2947920  22.0026230
 113.5335970  81.8466170  21.3762140 114.8108070  82.6540700  21.4691380
 109.1788250  86.1959940  35.8792960 108.7943040  85.5553610  36.4775920
 109.4900440  86.8996060  36.4487690 115.3285390  83.0436480  31.3601580
 115.6955520  82.5695050  32.1062920 115.1390450  83.9178050  31.7009920
 108.1925880  77.7880170  27.4895050 107.9072800  77.4235840  28.3273670
 108.1304740  77.0560630  26.8758190 113.1184760  82.0845120  33.6785790
 112.8141830  82.9637100  33.9036150 114.0731220  82.1444910  33.7143230
 111.6466550  86.2906110  24.2752640 110.8728810  85.7503730  24.1151360
 112.3761180  85.7712720  23.9370400 117.8664470  76.6809430  24.2108420
 117.0529080  76.1822600  24.1353730 117.6726420  77.5207680  23.7944770
 117.7873330  85.3580530  35.9548030 117.7210640  84.4376200  35.7005620
 117.1578470  85.4555970  36.6692670 111.6903950  85.9586490  27.9131450
 112.2082620  85.1554750  27.8588340 111.2387970  85.8965630  28.7548280
 116.5773450  87.2252770  23.1858750 116.9189150  87.9695000  22.6902070
 115.7486160  87.5383890  23.5483580 109.1748490  82.9247860  34.8257150
 108.8163430  83.5901710  35.4130490 108.8803050  82.0931410  35.1969770
 112.3761610  83.3832100  37.7096700 112.0761750  83.5289280  36.8124520
 113.1472850  82.8237390  37.6170090 117.7190060  88.1801100  35.7051830
 117.7334600  87.2482060  35.4870740 117.0115160  88.2660860  36.3441600
 115.5464140  87.3066300  25.9574670 116.2335270  87.8535510  26.3382260
 114.7596560  87.8507030  25.9924280 107.6856540  82.9239120  21.4491750
 108.5551390  83.2063920  21.7327670 107.1946860  83.7374990  21.3340560
 114.8491350  84.3112330  25.5700030 115.3054130  85.1217580  25.7960220
 114.4979560  83.9935470  26.4018520 117.1523960  89.8218670  32.7992330
 117.7966180  90.0278050  33.4765750 117.5153400  89.0607070  32.3463180
 110.7503130  74.6549980  26.0422550 110.6217760  74.6467880  26.9907470
 109.9265150  74.9933070  25.6913560 107.7497060  76.4141100  35.5029250
 107.0355580  76.6138020  36.1081860 108.1692100  75.6380670  35.8744050
 116.0282240  88.6737250  37.8893900 115.7079110  87.9546490  38.4339590
 115.3540600  89.3492320  37.9629960 114.0696410  89.5197700  22.8327050
 114.0606510  90.2527390  22.2171560 113.1494770  89.2729280  22.9254010
 109.6703050  84.7412590  23.5773810 109.0631000  85.4811490  23.5869110
 110.1452400  84.8311950  22.7512010 117.0556010  89.5825940  21.4952240
 117.1567990  89.3789930  20.5654220 116.1557750  89.3284220  21.7000020
 114.5781900  80.1406300  25.4776140 113.8698050  80.6092640  25.9189750
 114.8626380  79.4828310  26.1121330 116.2037830  81.5603000  33.4768670
 116.7023080  82.0348820  34.1420520 116.3460780  80.6366520  33.6838700
 112.7816920  78.4491380  22.8526850 113.6307450  78.8861530  22.7867040
 112.4148190  78.7611640  23.6798910 111.6808340  84.7023740  21.3262380
 112.4471610  84.5905100  21.8887810 111.7583030  84.0061710  20.6739150
 110.3755100  82.1348810  22.0095270 110.4558690  81.1876320  22.1212670
 111.2674850  82.4655690  22.1155930 108.0615290  88.3517770  24.9871320
 107.1355070  88.5938910  24.9776730 108.5271720  89.1792030  24.8656070
 107.9025900  83.9563730  37.2451440 108.4064920  83.3771010  37.8167670
 107.1633320  84.2403960  37.7827810 114.8049520  86.6777920  20.7997730
 114.7000160  86.0630270  21.5259110 114.6373740  86.1543810  20.0160740
 114.9563840  85.3634720  36.7786960 114.1909510  85.9319720  36.6941630
 115.1379800  85.0710930  35.8855190 109.9348980  82.0993320  38.1401510
 109.9754320  81.8007190  39.0486740 110.7894480  82.5000930  37.9809030
 113.7127370  84.6988870  23.3005020 114.1343790  84.5328740  24.1436410
 113.8378210  83.8889100  22.8060160 111.8754790  80.6785420  36.1076000
 111.3451250  80.1876370  35.4799340 112.5442860  81.1069620  35.5733930
 116.2255010  83.7226480  20.5482120 116.7460670  83.0075500  20.1823270
 116.8723410  84.3612350  20.8482630 112.3627090  77.6447790  36.1873290
 112.2683960  77.0268540  35.4624160 111.7824480  78.3714080  35.9603200
 115.1288530  76.2021030  33.2200680 114.6805830  76.2245290  32.3746230
 114.4953730  75.8040050  33.8170980 115.5348080  85.0975360  33.8413120
 115.9536190  85.9408090  33.6689360 114.6156710  85.2347400  33.6119900
 112.6086270  80.7722100  20.2463180 112.4075330  79.9089460  20.6076520
 112.4378320  80.6855460  19.3084780 114.6380750  79.3712890  36.4826780
 115.2280440  79.0628740  37.1704600 113.8200990  78.8992640  36.6386680
 111.4069070  77.8722720  20.2341060 111.7094970  77.8790150  19.3260210
 112.1463660  77.5220580  20.7308720 114.6254000  76.8157340  21.2197260
 114.2776000  76.1381330  20.6399710 114.8266770  76.3546850  22.0340650
 110.4299200  87.1765140  21.0670860 110.8674070  87.7194810  21.7228440
 110.9146930  86.3512090  21.0767200 107.6445000  89.9654170  28.5191120
 107.9748010  89.0975230  28.2869760 108.0736000  90.1712690  29.3496080
 112.2406920  88.2963180  26.1793090 111.9402460  88.1728150  27.0797000
 112.1344410  87.4371770  25.7708820 107.9659640  83.3444990  27.6161630
 107.3108480  83.0756630  26.9721330 108.8037590  83.2349470  27.1663610
 109.0035570  83.7297560  32.1564970 109.3708610  83.6424960  33.0360990
 108.4346390  82.9664110  32.0571830 108.5551570  80.6406650  36.0623390
 107.6607620  80.6073410  36.4017100 109.0949120  80.8393440  36.8274640
 107.1797720  80.5543920  23.5586960 106.2761800  80.8174120  23.3838620
 107.6638340  80.8255090  22.7786920 109.7224930  79.6109460  21.4681340
 110.4316630  79.1892680  20.9828620 109.0064870  79.6784690  20.8364690
 109.3699090  75.6648790  20.5083990 110.0927220  76.2057730  20.8265210
 109.6423610  75.3912210  19.6325530 109.0591280  74.9154980  30.4106610
 109.7067470  74.3652360  29.9701770 109.4793120  75.1698130  31.2322420
 108.8123280  75.0710650  33.1531930 108.4638100  75.5274470  33.9190110
 108.4810980  74.1767780  33.2354360 110.4187650  88.2430250  37.3185120
 110.3757280  87.8723160  38.1999580 110.5498660  89.1807820  37.4586940
 114.1193680  89.7989840  32.9194840 113.8785040  90.0664400  32.0325360
 115.0596320  89.9695570  32.9745700 116.3248100  76.2622530  36.6751350
 116.2636990  76.8544360  37.4246760 117.2648480  76.1548490  36.5301610
 109.4843920  74.5986850  36.4282700 110.0326910  74.4174900  35.6648810
 109.5499230  73.8080960  36.9639010 109.8887910  88.5550880  33.3890940
 109.1621970  87.9356170  33.3216890 109.9497060  88.9491490  32.5189020
 117.4505520  75.3994570  31.5805840 116.6677310  75.8740070  31.8602600
 117.1568450  74.4949400  31.4719020 108.7945930  75.7042050  24.1019560
 109.5525290  75.8170930  23.5283590 108.3323100  76.5411250  24.0562990
 115.3359740  77.8181320  27.0921870 114.5234250  77.4438210  26.7517750
 115.8401380  77.0626400  27.3943060 111.1671080  76.2306100  22.6421530
 111.6963840  75.4435900  22.5129480 111.7999400  76.9097290  22.8757060
 113.3608920  75.9681240  25.6966920 112.7311660  75.2668550  25.8637050
 112.8214060  76.7285370  25.4800080 113.4864480  75.2465220  38.1319410
 113.2048750  75.7498820  37.3680230 113.8684180  74.4486970  37.7661540
 111.5388370  88.6305610  22.9233420 110.9097250  89.0990710  23.4719250
 111.6536200  87.7854830  23.3579610 117.1256130  84.4590290  10.9543890
 116.3498230  83.9790730  11.2442460 117.7769060  83.7795940  10.7800050
 111.1421960  84.7710100  11.8319650 110.3106840  84.5158810  12.2316160
 111.7502940  84.8420870  12.5677570 111.1223220  88.8050190  12.0277670
 111.4251260  87.9147930  11.8487890 111.8666810  89.3620410  11.7999920
 109.5513910  79.7311990   5.6162040 108.6630610  80.0727960   5.5141920
 109.8355100  79.5312310   4.7242870 107.5146920  82.3317640  11.5001740
 108.0863030  81.5639840  11.5005380 107.5148460  82.6306400  10.5908350
 116.5665120  87.1347480  10.9614050 116.4973400  86.1937420  10.8003180
 117.3284980  87.2248890  11.5336620 108.7571790  77.7402000  13.2870670
 108.5774630  76.8427750  13.5673430 108.3551870  78.2873870  13.9617620
 117.5970290  79.9417860  11.1882980 117.9735110  79.0689740  11.0756650
 117.4989800  80.2776560  10.2973420 111.7275300  78.3143490   6.6500420
 111.8342050  79.2147220   6.9569180 110.8167660  78.2661460   6.3595070
 109.3758460  80.2362500  11.8953010 110.0568570  80.5000870  12.5140410
 109.0606510  79.3963370  12.2291020 113.5683030  81.2829860  10.9825600
 114.0761250  81.7810830  11.6230620 114.0996270  80.5065060  10.8064960
 111.8519130  75.9228420  15.2489020 111.8537570  76.4400810  14.4434920
 111.0223440  75.4458600  15.2258950 113.1021980  85.5623600  13.4262520
 112.7691360  86.1892520  14.0683590 113.2788660  86.0885480  12.6464190
 111.5334460  77.6338380  13.2559470 111.8751270  78.4780430  12.9613340
 110.5950270  77.7822120  13.3724810 112.3141080  87.5304400  15.2411700
 112.9315080  88.2055480  14.9596150 111.4534200  87.9392380  15.1499200
 107.6073420  86.7204260   4.1218550 107.2301400  87.2091360   3.3903450
 107.8646490  87.3929540   4.7525080 115.2162350  75.1220650   9.5804060
 115.5237330  74.5667540   8.8639560 114.2863050  75.2565110   9.3977050
 117.6043110  83.1869480   6.3164180 116.6772390  83.1206860   6.5452650
 117.7567930  84.1249610   6.2019420 117.5912190  79.4586480   3.3131340
 116.6515860  79.6200440   3.3983800 117.9095450  80.1772160   2.7667330
 113.2099750  83.7134220   9.0983910 112.8056750  83.0011470   8.6029810
 113.2962870  83.3687460   9.9871950 113.6781450  87.4001780  11.2623120
 113.3809740  86.7947250  10.5830900 114.6281270  87.4379090  11.1512480
 111.9228370  80.4877430  12.8782950 112.4742960  80.5972770  12.1036200
 112.4371880  80.8615030  13.5938180 112.7699880  87.1383470  17.9130920
 111.8728410  87.3623440  18.1604320 112.7952750  87.2618410  16.9642320
 111.5971100  84.0096790  16.4888290 111.4578870  84.8819590  16.8575690
 110.7152460  83.6669600  16.3436230 113.3951450  89.9518490  18.6973440
 113.3666880  90.3561440  17.8301870 113.2316420  89.0228850  18.5345040
 109.9104380  82.6079200   6.5990560 109.7901980  83.3341290   5.9871830
 109.6005270  81.8382110   6.1218470 107.5489750  85.7794340  12.4059200
 107.6270170  85.9143110  11.4614920 108.1631430  85.0710230  12.5987320
 108.7937380  87.4794530   8.8165380 108.3865460  87.6209120   7.9618980
 109.6850390  87.1954690   8.6136590 107.6049270  86.8208510  14.9453660
 107.7680310  86.3513870  14.1273030 108.0701720  86.3132070  15.6102500
 112.3768040  75.9514270   9.9814230 111.9336190  76.7323810   9.6498750
 112.9353030  76.2744160  10.6885170 116.6637850  78.8182790  15.5849550
 116.2017220  79.0265810  16.3969490 116.2615960  78.0042140  15.2820220
 115.4926860  75.5724970   4.8620060 114.8681040  75.5684840   5.5873370
 115.4056980  74.7055930   4.4656030 114.4143940  76.4961600  11.8403830
 114.7116270  77.4024430  11.7595850 114.9629500  76.0080380  11.2263400
 112.1682260  81.0747840   7.7095480 111.9423180  80.8585010   8.6142100
 111.3874790  81.5076300   7.3641450 114.6081470  81.9733420  18.3755750
 114.5125070  81.0328150  18.2256150 115.4513450  82.1948490  17.9803820
 109.7392010  78.3847090  16.5289530 109.3455400  79.2322300  16.7362310
 109.0510410  77.7473460  16.7198170 116.3137060  78.4682060  19.5986270
 115.6235380  78.2754260  20.2332360 117.0569360  78.7516700  20.1310570
 107.0409060  76.3075550  10.5619610 106.7522110  76.8778410  11.2744590
 107.7854820  75.8280000  10.9250840 115.0277420  78.9834700  10.8392680
 115.0313480  78.5424650   9.9897220 115.9228540  79.3052030  10.9464500
 110.8779800  78.8661190   9.7986890 110.5379850  79.3436420  10.5553940
 110.1157120  78.4126310   9.4387990 115.0897570  79.9846780   3.8299440
 115.2110390  79.9433260   4.7785260 114.7046080  80.8470930   3.6746170
 114.1019070  82.2947920   3.2282740 113.5335970  81.8466170   2.6018650
 114.8108070  82.6540700   2.6947890 109.1788250  86.1959940  17.1049470
 108.7943040  85.5553610  17.7032430 109.4900440  86.8996060  17.6744200
 115.3285390  83.0436480  12.5858090 115.6955520  82.5695050  13.3319430
 115.1390450  83.9178050  12.9266430 108.1925880  77.7880170   8.7151560
 107.9072800  77.4235840   9.5530180 108.1304740  77.0560630   8.1014700
 113.1184760  82.0845120  14.9042300 112.8141830  82.9637100  15.1292660
 114.0731220  82.1444910  14.9399740 111.6466550  86.2906110   5.5009150
 110.8728810  85.7503730   5.3407870 112.3761180  85.7712720   5.1626910
 117.8664470  76.6809430   5.4364930 117.0529080  76.1822600   5.3610240
 117.6726420  77.5207680   5.0201280 117.7873330  85.3580530  17.1804540
 117.7210640  84.4376200  16.9262130 117.1578470  85.4555970  17.8949180
 111.6903950  85.9586490   9.1387960 112.2082620  85.1554750   9.0844850
 111.2387970  85.8965630   9.9804790 116.5773450  87.2252770   4.4115260
 116.9189150  87.9695000   3.9158580 115.7486160  87.5383890   4.7740090
 109.1748490  82.9247860  16.0513660 108.8163430  83.5901710  16.6387000
 108.8803050  82.0931410  16.4226280 112.3761610  83.3832100  18.9353210
 112.0761750  83.5289280  18.0381030 113.1472850  82.8237390  18.8426600
 117.7190060  88.1801100  16.9308340 117.7334600  87.2482060  16.7127250
 117.0115160  88.2660860  17.5698110 115.5464140  87.3066300   7.1831180
 116.2335270  87.8535510   7.5638770 114.7596560  87.8507030   7.2180790
 107.6856540  82.9239120   2.6748260 108.5551390  83.2063920   2.9584180
 107.1946860  83.7374990   2.5597070 114.8491350  84.3112330   6.7956540
 115.3054130  85.1217580   7.0216730 114.4979560  83.9935470   7.6275030
 117.1523960  89.8218670  14.0248840 117.7966180  90.0278050  14.7022260
 117.5153400  89.0607070  13.5719690 110.7503130  74.6549980   7.2679060
 110.6217760  74.6467880   8.2163980 109.9265150  74.9933070   6.9170070
 107.7497060  76.4141100  16.7285760 107.0355580  76.6138020  17.3338370
 108.1692100  75.6380670  17.1000560 116.0282240  88.6737250  19.1150410
 115.7079110  87.9546490  19.6596100 115.3540600  89.3492320  19.1886470
 114.0696410  89.5197700   4.0583560 114.0606510  90.2527390   3.4428070
 113.1494770  89.2729280   4.1510520 109.6703050  84.7412590   4.8030320
 109.0631000  85.4811490   4.8125620 110.1452400  84.8311950   3.9768520
 117.0556010  89.5825940   2.7208750 117.1567990  89.3789930   1.7910730
 116.1557750  89.3284220   2.9256530 114.5781900  80.1406300   6.7032650
 113.8698050  80.6092640   7.1446260 114.8626380  79.4828310   7.3377840
 116.2037830  81.5603000  14.7025180 116.7023080  82.0348820  15.3677030
 116.3460780  80.6366520  14.9095210 112.7816920  78.4491380   4.0783360
 113.6307450  78.8861530   4.0123550 112.4148190  78.7611640   4.9055420
 111.6808340  84.7023740   2.5518890 112.4471610  84.5905100   3.1144320
 111.7583030  84.0061710   1.8995660 110.3755100  82.1348810   3.2351780
 110.4558690  81.1876320   3.3469180 111.2674850  82.4655690   3.3412440
 108.0615290  88.3517770   6.2127830 107.1355070  88.5938910   6.2033240
 108.5271720  89.1792030   6.0912580 107.9025900  83.9563730  18.4707950
 108.4064920  83.3771010  19.0424180 107.1633320  84.2403960  19.0084320
 114.9563840  85.3634720  18.0043470 114.1909510  85.9319720  17.9198140
 115.1379800  85.0710930  17.1111700 109.9348980  82.0993320  19.3658020
 109.9754320  81.8007190  20.2743250 110.7894480  82.5000930  19.2065540
 113.7127370  84.6988870   4.5261530 114.1343790  84.5328740   5.3692920
 113.8378210  83.8889100   4.0316670 111.8754790  80.6785420  17.3332510
 111.3451250  80.1876370  16.7055850 112.5442860  81.1069620  16.7990440
 112.3627090  77.6447790  17.4129800 112.2683960  77.0268540  16.6880670
 111.7824480  78.3714080  17.1859710 115.1288530  76.2021030  14.4457190
 114.6805830  76.2245290  13.6002740 114.4953730  75.8040050  15.0427490
 115.5348080  85.0975360  15.0669630 115.9536190  85.9408090  14.8945870
 114.6156710  85.2347400  14.8376410 114.6380750  79.3712890  17.7083290
 115.2280440  79.0628740  18.3961110 113.8200990  78.8992640  17.8643190
 114.6254000  76.8157340   2.4453770 114.2776000  76.1381330   1.8656220
 114.8266770  76.3546850   3.2597160 110.4299200  87.1765140   2.2927370
 110.8674070  87.7194810   2.9484950 110.9146930  86.3512090   2.3023710
 107.6445000  89.9654170   9.7447630 107.9748010  89.0975230   9.5126270
 108.0736000  90.1712690  10.5752590 112.2406920  88.2963180   7.4049600
 111.9402460  88.1728150   8.3053510 112.1344410  87.4371770   6.9965330
 107.9659640  83.3444990   8.8418140 107.3108480  83.0756630   8.1977840
 108.8037590  83.2349470   8.3920120 109.0035570  83.7297560  13.3821480
 109.3708610  83.6424960  14.2617500 108.4346390  82.9664110  13.2828340
 108.5551570  80.6406650  17.2879900 107.6607620  80.6073410  17.6273610
 109.0949120  80.8393440  18.0531150 107.1797720  80.5543920   4.7843470
 106.2761800  80.8174120   4.6095130 107.6638340  80.8255090   4.0043430
 109.7224930  79.6109460   2.6937850 110.4316630  79.1892680   2.2085130
 109.0064870  79.6784690   2.0621200 109.0591280  74.9154980  11.6363120
 109.7067470  74.3652360  11.1958280 109.4793120  75.1698130  12.4578930
 108.8123280  75.0710650  14.3788440 108.4638100  75.5274470  15.1446620
 108.4810980  74.1767780  14.4610870 110.4187650  88.2430250  18.5441630
 110.3757280  87.8723160  19.4256090 110.5498660  89.1807820  18.6843450
 114.1193680  89.7989840  14.1451350 113.8785040  90.0664400  13.2581870
 115.0596320  89.9695570  14.2002210 116.3248100  76.2622530  17.9007860
 116.2636990  76.8544360  18.6503270 117.2648480  76.1548490  17.7558120
 109.4843920  74.5986850  17.6539210 110.0326910  74.4174900  16.8905320
 109.5499230  73.8080960  18.1895520 109.8887910  88.5550880  14.6147450
 109.1621970  87.9356170  14.5473400 109.9497060  88.9491490  13.7445530
 117.4505520  75.3994570  12.8062350 116.6677310  75.8740070  13.0859110
 117.1568450  74.4949400  12.6975530 108.7945930  75.7042050   5.3276070
 109.5525290  75.8170930   4.7540100 108.3323100  76.5411250   5.2819500
 115.3359740  77.8181320   8.3178380 114.5234250  77.4438210   7.9774260
 115.8401380  77.0626400   8.6199570 111.1671080  76.2306100   3.8678040
 111.6963840  75.4435900   3.7385990 111.7999400  76.9097290   4.1013570
 113.3608920  75.9681240   6.9223430 112.7311660  75.2668550   7.0893560
 112.8214060  76.7285370   6.7056590 113.4864480  75.2465220  19.3575920
 113.2048750  75.7498820  18.5936740 113.8684180  74.4486970  18.9918050
 111.5388370  88.6305610   4.1489930 110.9097250  89.0990710   4.6975760
 111.6536200  87.7854830   4.5836120 117.1256130  65.6846800  67.2774360
 116.3498230  65.2047240  67.5672930 117.7769060  65.0052450  67.1030520
 111.1421960  65.9966610  68.1550120 110.3106840  65.7415320  68.5546630
 111.7502940  66.0677380  68.8908040 111.1223220  70.0306700  68.3508140
 111.4251260  69.1404440  68.1718360 111.8666810  70.5876920  68.1230390
 109.5513910  60.9568500  61.9392510 108.6630610  61.2984470  61.8372390
 109.8355100  60.7568820  61.0473340 107.5146920  63.5574150  67.8232210
 108.0863030  62.7896350  67.8235850 107.5148460  63.8562910  66.9138820
 116.5665120  68.3603990  67.2844520 116.4973400  67.4193930  67.1233650
 117.3284980  68.4505400  67.8567090 108.7571790  58.9658510  69.6101140
 108.5774630  58.0684260  69.8903900 108.3551870  59.5130380  70.2848090
 117.5970290  61.1674370  67.5113450 117.9735110  60.2946250  67.3987120
 117.4989800  61.5033070  66.6203890 111.7275300  59.5400000  62.9730890
 111.8342050  60.4403730  63.2799650 110.8167660  59.4917970  62.6825540
 109.3758460  61.4619010  68.2183480 110.0568570  61.7257380  68.8370880
 109.0606510  60.6219880  68.5521490 113.5683030  62.5086370  67.3056070
 114.0761250  63.0067340  67.9461090 114.0996270  61.7321570  67.1295430
 111.8519130  57.1484930  71.5719490 111.8537570  57.6657320  70.7665390
 111.0223440  56.6715110  71.5489420 113.1021980  66.7880110  69.7492990
 112.7691360  67.4149030  70.3914060 113.2788660  67.3141990  68.9694660
 111.5334460  58.8594890  69.5789940 111.8751270  59.7036940  69.2843810
 110.5950270  59.0078630  69.6955280 112.3141080  68.7560910  71.5642170
 112.9315080  69.4311990  71.2826620 111.4534200  69.1648890  71.4729670
 107.6073420  67.9460770  60.4449020 107.2301400  68.4347870  59.7133920
 107.8646490  68.6186050  61.0755550 115.2162350  56.3477160  65.9034530
 115.5237330  55.7924050  65.1870030 114.2863050  56.4821620  65.7207520
 117.6043110  64.4125990  62.6394650 116.6772390  64.3463370  62.8683120
 117.7567930  65.3506120  62.5249890 117.5912190  60.6842990  59.6361810
 116.6515860  60.8456950  59.7214270 117.9095450  61.4028670  59.0897800
 113.2099750  64.9390730  65.4214380 112.8056750  64.2267980  64.9260280
 113.2962870  64.5943970  66.3102420 113.6781450  68.6258290  67.5853590
 113.3809740  68.0203760  66.9061370 114.6281270  68.6635600  67.4742950
 111.9228370  61.7133940  69.2013420 112.4742960  61.8229280  68.4266670
 112.4371880  62.0871540  69.9168650 112.7699880  68.3639980  74.2361390
 111.8728410  68.5879950  74.4834790 112.7952750  68.4874920  73.2872790
 111.5971100  65.2353300  72.8118760 111.4578870  66.1076100  73.1806160
 110.7152460  64.8926110  72.6666700 113.3951450  71.1775000  75.0203910
 113.3666880  71.5817950  74.1532340 113.2316420  70.2485360  74.8575510
 109.9104380  63.8335710  62.9221030 109.7901980  64.5597800  62.3102300
 109.6005270  63.0638620  62.4448940 107.5489750  67.0050850  68.7289670
 107.6270170  67.1399620  67.7845390 108.1631430  66.2966740  68.9217790
 108.7937380  68.7051040  65.1395850 108.3865460  68.8465630  64.2849450
 109.6850390  68.4211200  64.9367060 113.0659040  72.9196820  63.2518520
 112.8901520  72.0032360  63.0386320 112.2114780  73.2784110  63.4916320
 107.6049270  68.0465020  71.2684130 107.7680310  67.5770380  70.4503500
 108.0701720  67.5388580  71.9332970 112.3768040  57.1770780  66.3044700
 111.9336190  57.9580320  65.9729220 112.9353030  57.5000670  67.0115640
 116.6637850  60.0439300  71.9080020 116.2017220  60.2522320  72.7199960
 116.2615960  59.2298650  71.6050690 115.4926860  56.7981480  61.1850530
 114.8681040  56.7941350  61.9103840 115.4056980  55.9312440  60.7886500
 114.4143940  57.7218110  68.1634300 114.7116270  58.6280940  68.0826320
 114.9629500  57.2336890  67.5493870 112.1682260  62.3004350  64.0325950
 111.9423180  62.0841520  64.9372570 111.3874790  62.7332810  63.6871920
 114.6081470  63.1989930  74.6986220 114.5125070  62.2584660  74.5486620
 115.4513450  63.4205000  74.3034290 109.7392010  59.6103600  72.8520000
 109.3455400  60.4578810  73.0592780 109.0510410  58.9729970  73.0428640
 107.0409060  57.5332060  66.8850080 106.7522110  58.1034920  67.5975060
 107.7854820  57.0536510  67.2481310 107.2279290  61.4752180  58.0952800
 107.1453960  62.4182940  58.2367790 106.8762350  61.3327090  57.2165150
 115.0277420  60.2091210  67.1623150 115.0313480  59.7681160  66.3127690
 115.9228540  60.5308540  67.2694970 110.8779800  60.0917700  66.1217360
 110.5379850  60.5692930  66.8784410 110.1157120  59.6382820  65.7618460
 115.0897570  61.2103290  60.1529910 115.2110390  61.1689770  61.1015730
 114.7046080  62.0727440  59.9976640 114.1019070  63.5204430  59.5513210
 113.5335970  63.0722680  58.9249120 114.8108070  63.8797210  59.0178360
 109.1788250  67.4216450  73.4279940 108.7943040  66.7810120  74.0262900
 109.4900440  68.1252570  73.9974670 115.3285390  64.2692990  68.9088560
 115.6955520  63.7951560  69.6549900 115.1390450  65.1434560  69.2496900
 108.1925880  59.0136680  65.0382030 107.9072800  58.6492350  65.8760650
 108.1304740  58.2817140  64.4245170 113.1184760  63.3101630  71.2272770
 112.8141830  64.1893610  71.4523130 114.0731220  63.3701420  71.2630210
 111.6466550  67.5162620  61.8239620 110.8728810  66.9760240  61.6638340
 112.3761180  66.9969230  61.4857380 117.8664470  57.9065940  61.7595400
 117.0529080  57.4079110  61.6840710 117.6726420  58.7464190  61.3431750
 117.7873330  66.5837040  73.5035010 117.7210640  65.6632710  73.2492600
 117.1578470  66.6812480  74.2179650 111.6903950  67.1843000  65.4618430
 112.2082620  66.3811260  65.4075320 111.2387970  67.1222140  66.3035260
 116.5773450  68.4509280  60.7345730 116.9189150  69.1951510  60.2389050
 115.7486160  68.7640400  61.0970560 109.1748490  64.1504370  72.3744130
 108.8163430  64.8158220  72.9617470 108.8803050  63.3187920  72.7456750
 112.3761610  64.6088610  75.2583680 112.0761750  64.7545790  74.3611500
 113.1472850  64.0493900  75.1657070 117.7190060  69.4057610  73.2538810
 117.7334600  68.4738570  73.0357720 117.0115160  69.4917370  73.8928580
 115.5464140  68.5322810  63.5061650 116.2335270  69.0792020  63.8869240
 114.7596560  69.0763540  63.5411260 107.6856540  64.1495630  58.9978730
 108.5551390  64.4320430  59.2814650 107.1946860  64.9631500  58.8827540
 114.8491350  65.5368840  63.1187010 115.3054130  66.3474090  63.3447200
 114.4979560  65.2191980  63.9505500 117.1523960  71.0475180  70.3479310
 117.7966180  71.2534560  71.0252730 117.5153400  70.2863580  69.8950160
 110.7503130  55.8806490  63.5909530 110.6217760  55.8724390  64.5394450
 109.9265150  56.2189580  63.2400540 108.0527790  73.3623010  59.5640360
 108.4125430  73.9612350  58.9097630 107.9120130  73.9082900  60.3375390
 107.7497060  57.6397610  73.0516230 107.0355580  57.8394530  73.6568840
 108.1692100  56.8637180  73.4231030 108.0369650  71.6277870  74.0382760
 108.1460770  70.6872610  73.8978150 107.3850210  71.8932620  73.3896490
 116.0282240  69.8993760  75.4380880 115.7079110  69.1803000  75.9826570
 115.3540600  70.5748830  75.5116940 114.0696410  70.7454210  60.3814030
 114.0606510  71.4783900  59.7658540 113.1494770  70.4985790  60.4740990
 109.6703050  65.9669100  61.1260790 109.0631000  66.7068000  61.1356090
 110.1452400  66.0568460  60.2998990 117.0556010  70.8082450  59.0439220
 117.1567990  70.6046440  58.1141200 116.1557750  70.5540730  59.2487000
 114.5781900  61.3662810  63.0263120 113.8698050  61.8349150  63.4676730
 114.8626380  60.7084820  63.6608310 116.2037830  62.7859510  71.0255650
 116.7023080  63.2605330  71.6907500 116.3460780  61.8623030  71.2325680
 115.6974120  73.3268770  63.7386890 115.9515620  73.2890160  62.8166260
 114.7486600  73.2002100  63.7315140 112.7816920  59.6747890  60.4013830
 113.6307450  60.1118040  60.3354020 112.4148190  59.9868150  61.2285890
 111.6808340  65.9280250  58.8749360 112.4471610  65.8161610  59.4374790
 111.7583030  65.2318220  58.2226130 110.3755100  63.3605320  59.5582250
 110.4558690  62.4132830  59.6699650 111.2674850  63.6912200  59.6642910
 111.1769810  73.5100710  66.6616790 111.9132290  72.9616170  66.9325360
 111.5610730  74.3756720  66.5222780 108.0615290  69.5774280  62.5358300
 107.1355070  69.8195420  62.5263710 108.5271720  70.4048540  62.4143050
 114.2872120  72.6831020  58.4842360 115.0800730  72.9719850  58.0324150
 113.7676470  72.2523190  57.8054840 107.9025900  65.1820240  74.7938420
 108.4064920  64.6027520  75.3654650 107.1633320  65.4660470  75.3314790
 114.8049520  67.9034430  58.3484710 114.7000160  67.2886780  59.0746090
 114.6373740  67.3800320  57.5647720 114.9563840  66.5891230  74.3273940
 114.1909510  67.1576230  74.2428610 115.1379800  66.2967440  73.4342170
 113.7127370  65.9245380  60.8492000 114.1343790  65.7585250  61.6923390
 113.8378210  65.1145610  60.3547140 111.8754790  61.9041930  73.6562980
 111.3451250  61.4132880  73.0286320 112.5442860  62.3326130  73.1220910
 116.2255010  64.9482990  58.0969100 116.7460670  64.2332010  57.7310250
 116.8723410  65.5868860  58.3969610 112.3627090  58.8704300  73.7360270
 112.2683960  58.2525050  73.0111140 111.7824480  59.5970590  73.5090180
 115.1288530  57.4277540  70.7687660 114.6805830  57.4501800  69.9233210
 114.4953730  57.0296560  71.3657960 115.5348080  66.3231870  71.3900100
 115.9536190  67.1664600  71.2176340 114.6156710  66.4603910  71.1606880
 112.6086270  61.9978610  57.7950160 112.4075330  61.1345970  58.1563500
 112.4378320  61.9111970  56.8571760 113.3855500  72.6284880  72.5057830
 112.8476590  73.3530940  72.1866530 113.6389460  72.1515220  71.7155170
 114.6380750  60.5969400  74.0313760 115.2280440  60.2885250  74.7191580
 113.8200990  60.1249150  74.1873660 111.4069070  59.0979230  57.7828040
 111.7094970  59.1046660  56.8747190 112.1463660  58.7477090  58.2795700
 116.2417710  73.8636090  72.7644480 116.1676410  74.7671230  73.0716850
 115.3396550  73.5447990  72.7366550 114.6254000  58.0413850  58.7684240
 114.2776000  57.3637840  58.1886690 114.8266770  57.5803360  59.5827630
 116.7903040  73.0294600  60.3870840 117.6853830  73.3679570  60.4089600
 116.8220670  72.3074010  59.7595120 110.4299200  68.4021650  58.6157840
 110.8674070  68.9451320  59.2715420 110.9146930  67.5768600  58.6254180
 107.6445000  71.1910680  66.0678100 107.9748010  70.3231740  65.8356740
 108.0736000  71.3969200  66.8983060 112.2406920  69.5219690  63.7280070
 111.9402460  69.3984660  64.6283980 112.1344410  68.6628280  63.3195800
 108.1335210  72.0581270  68.8059730 107.6966200  72.2382070  69.6383880
 108.7012890  72.8155890  68.6641450 107.9659640  64.5701500  65.1648610
 107.3108480  64.3013140  64.5208310 108.8037590  64.4605980  64.7150590
 109.0035570  64.9554070  69.7051950 109.3708610  64.8681470  70.5847970
 108.4346390  64.1920620  69.6058810 108.5551570  61.8663160  73.6110370
 107.6607620  61.8329920  73.9504080 109.0949120  62.0649950  74.3761620
 107.1797720  61.7800430  61.1073940 106.2761800  62.0430630  60.9325600
 107.6638340  62.0511600  60.3273900 109.7224930  60.8365970  59.0168320
 110.4316630  60.4149190  58.5315600 109.0064870  60.9041200  58.3851670
 109.3699090  56.8905300  58.0570970 110.0927220  57.4314240  58.3752190
 109.6423610  56.6168720  57.1812510 109.0591280  56.1411490  67.9593590
 109.7067470  55.5908870  67.5188750 109.4793120  56.3954640  68.7809400
 108.8123280  56.2967160  70.7018910 108.4638100  56.7530980  71.4677090
 108.4810980  55.4024290  70.7841340 110.4187650  69.4686760  74.8672100
 110.3757280  69.0979670  75.7486560 110.5498660  70.4064330  75.0073920
 114.1193680  71.0246350  70.4681820 113.8785040  71.2920910  69.5812340
 115.0596320  71.1952080  70.5232680 116.3248100  57.4879040  74.2238330
 116.2636990  58.0800870  74.9733740 117.2648480  57.3805000  74.0788590
 109.4843920  55.8243360  73.9769680 110.0326910  55.6431410  73.2135790
 109.5499230  55.0337470  74.5125990 110.2575680  72.4149010  71.9869880
 109.6636000  72.2833710  72.7259920 110.2499520  71.5787150  71.5211980
 109.8887910  69.7807390  70.9377920 109.1621970  69.1612680  70.8703870
 109.9497060  70.1748000  70.0676000 113.4933010  71.9952390  67.7227330
 114.0098030  71.3839750  67.1975590 114.1430390  72.4981170  68.2138340
 116.2328510  72.8860880  68.5496310 116.5206320  72.6315180  67.6729320
 116.7451730  72.3338240  69.1401880 117.4505520  56.6251080  69.1292820
 116.6677310  57.0996580  69.4089580 117.1568450  55.7205910  69.0206000
 108.1717910  73.0981780  64.1474680 108.0039950  72.4652460  64.8456570
 107.3052420  73.3041180  63.7968870 108.7945930  56.9298560  61.6506540
 109.5525290  57.0427440  61.0770570 108.3323100  57.7667760  61.6049970
 115.3359740  59.0437830  64.6408850 114.5234250  58.6694720  64.3004730
 115.8401380  58.2882910  64.9430040 109.7780610  71.7915010  61.5924820
 109.2528230  72.1723040  60.8886780 109.7025190  72.4165780  62.3134530
 111.1671080  57.4562610  60.1908510 111.6963840  56.6692410  60.0616460
 111.7999400  58.1353800  60.4244040 113.3608920  57.1937750  63.2453900
 112.7311660  56.4925060  63.4124030 112.8214060  57.9541880  63.0287060
 116.3000870  73.8076980  75.9164510 117.2268180  73.5721250  75.9600470
 116.2851300  74.6348980  75.4350540 113.4864480  56.4721730  75.6806390
 113.2048750  56.9755330  74.9167210 113.8684180  55.6743480  75.3148520
 112.3773580  73.7397390  60.4674070 113.1092400  73.4556670  59.9197960
 112.6367250  73.5010670  61.3573450 111.5388370  69.8562120  60.4720400
 110.9097250  70.3247220  61.0206230 111.6536200  69.0111340  60.9066590
 117.1256130  65.6846800  48.5030870 116.3498230  65.2047240  48.7929440
 117.7769060  65.0052450  48.3287030 111.1421960  65.9966610  49.3806630
 110.3106840  65.7415320  49.7803140 111.7502940  66.0677380  50.1164550
 111.1223220  70.0306700  49.5764650 111.4251260  69.1404440  49.3974870
 111.8666810  70.5876920  49.3486900 109.5513910  60.9568500  43.1649020
 108.6630610  61.2984470  43.0628900 109.8355100  60.7568820  42.2729850
 107.5146920  63.5574150  49.0488720 108.0863030  62.7896350  49.0492360
 107.5148460  63.8562910  48.1395330 116.5665120  68.3603990  48.5101030
 116.4973400  67.4193930  48.3490160 117.3284980  68.4505400  49.0823600
 108.7571790  58.9658510  50.8357650 108.5774630  58.0684260  51.1160410
 108.3551870  59.5130380  51.5104600 117.5970290  61.1674370  48.7369960
 117.9735110  60.2946250  48.6243630 117.4989800  61.5033070  47.8460400
 111.7275300  59.5400000  44.1987400 111.8342050  60.4403730  44.5056160
 110.8167660  59.4917970  43.9082050 109.3758460  61.4619010  49.4439990
 110.0568570  61.7257380  50.0627390 109.0606510  60.6219880  49.7778000
 113.5683030  62.5086370  48.5312580 114.0761250  63.0067340  49.1717600
 114.0996270  61.7321570  48.3551940 111.8519130  57.1484930  52.7976000
 111.8537570  57.6657320  51.9921900 111.0223440  56.6715110  52.7745930
 113.1021980  66.7880110  50.9749500 112.7691360  67.4149030  51.6170570
 113.2788660  67.3141990  50.1951170 111.5334460  58.8594890  50.8046450
 111.8751270  59.7036940  50.5100320 110.5950270  59.0078630  50.9211790
 112.3141080  68.7560910  52.7898680 112.9315080  69.4311990  52.5083130
 111.4534200  69.1648890  52.6986180 107.6073420  67.9460770  41.6705530
 107.2301400  68.4347870  40.9390430 107.8646490  68.6186050  42.3012060
 115.2162350  56.3477160  47.1291040 115.5237330  55.7924050  46.4126540
 114.2863050  56.4821620  46.9464030 117.6043110  64.4125990  43.8651160
 116.6772390  64.3463370  44.0939630 117.7567930  65.3506120  43.7506400
 117.5912190  60.6842990  40.8618320 116.6515860  60.8456950  40.9470780
 117.9095450  61.4028670  40.3154310 113.2099750  64.9390730  46.6470890
 112.8056750  64.2267980  46.1516790 113.2962870  64.5943970  47.5358930
 113.6781450  68.6258290  48.8110100 113.3809740  68.0203760  48.1317880
 114.6281270  68.6635600  48.6999460 111.9228370  61.7133940  50.4269930
 112.4742960  61.8229280  49.6523180 112.4371880  62.0871540  51.1425160
 112.7699880  68.3639980  55.4617900 111.8728410  68.5879950  55.7091300
 112.7952750  68.4874920  54.5129300 111.5971100  65.2353300  54.0375270
 111.4578870  66.1076100  54.4062670 110.7152460  64.8926110  53.8923210
 113.3951450  71.1775000  56.2460420 113.3666880  71.5817950  55.3788850
 113.2316420  70.2485360  56.0832020 109.9104380  63.8335710  44.1477540
 109.7901980  64.5597800  43.5358810 109.6005270  63.0638620  43.6705450
 107.5489750  67.0050850  49.9546180 107.6270170  67.1399620  49.0101900
 108.1631430  66.2966740  50.1474300 108.7937380  68.7051040  46.3652360
 108.3865460  68.8465630  45.5105960 109.6850390  68.4211200  46.1623570
 113.0659040  72.9196820  44.4775030 112.8901520  72.0032360  44.2642830
 112.2114780  73.2784110  44.7172830 107.6049270  68.0465020  52.4940640
 107.7680310  67.5770380  51.6760010 108.0701720  67.5388580  53.1589480
 112.3768040  57.1770780  47.5301210 111.9336190  57.9580320  47.1985730
 112.9353030  57.5000670  48.2372150 116.6637850  60.0439300  53.1336530
 116.2017220  60.2522320  53.9456470 116.2615960  59.2298650  52.8307200
 115.4926860  56.7981480  42.4107040 114.8681040  56.7941350  43.1360350
 115.4056980  55.9312440  42.0143010 114.4143940  57.7218110  49.3890810
 114.7116270  58.6280940  49.3082830 114.9629500  57.2336890  48.7750380
 112.1682260  62.3004350  45.2582460 111.9423180  62.0841520  46.1629080
 111.3874790  62.7332810  44.9128430 114.6081470  63.1989930  55.9242730
 114.5125070  62.2584660  55.7743130 115.4513450  63.4205000  55.5290800
 109.7392010  59.6103600  54.0776510 109.3455400  60.4578810  54.2849290
 109.0510410  58.9729970  54.2685150 116.3137060  59.6938570  57.1473250
 115.6235380  59.5010770  57.7819340 117.0569360  59.9773210  57.6797550
 107.0409060  57.5332060  48.1106590 106.7522110  58.1034920  48.8231570
 107.7854820  57.0536510  48.4737820 107.2279290  61.4752180  39.3209310
 107.1453960  62.4182940  39.4624300 106.8762350  61.3327090  38.4421660
 115.0277420  60.2091210  48.3879660 115.0313480  59.7681160  47.5384200
 115.9228540  60.5308540  48.4951480 110.8779800  60.0917700  47.3473870
 110.5379850  60.5692930  48.1040920 110.1157120  59.6382820  46.9874970
 115.0897570  61.2103290  41.3786420 115.2110390  61.1689770  42.3272240
 114.7046080  62.0727440  41.2233150 114.1019070  63.5204430  40.7769720
 113.5335970  63.0722680  40.1505630 114.8108070  63.8797210  40.2434870
 109.1788250  67.4216450  54.6536450 108.7943040  66.7810120  55.2519410
 109.4900440  68.1252570  55.2231180 115.3285390  64.2692990  50.1345070
 115.6955520  63.7951560  50.8806410 115.1390450  65.1434560  50.4753410
 108.1925880  59.0136680  46.2638540 107.9072800  58.6492350  47.1017160
 108.1304740  58.2817140  45.6501680 113.1184760  63.3101630  52.4529280
 112.8141830  64.1893610  52.6779640 114.0731220  63.3701420  52.4886720
 111.6466550  67.5162620  43.0496130 110.8728810  66.9760240  42.8894850
 112.3761180  66.9969230  42.7113890 117.8664470  57.9065940  42.9851910
 117.0529080  57.4079110  42.9097220 117.6726420  58.7464190  42.5688260
 117.7873330  66.5837040  54.7291520 117.7210640  65.6632710  54.4749110
 117.1578470  66.6812480  55.4436160 111.6903950  67.1843000  46.6874940
 112.2082620  66.3811260  46.6331830 111.2387970  67.1222140  47.5291770
 116.5773450  68.4509280  41.9602240 116.9189150  69.1951510  41.4645560
 115.7486160  68.7640400  42.3227070 109.1748490  64.1504370  53.6000640
 108.8163430  64.8158220  54.1873980 108.8803050  63.3187920  53.9713260
 112.3761610  64.6088610  56.4840190 112.0761750  64.7545790  55.5868010
 113.1472850  64.0493900  56.3913580 117.7190060  69.4057610  54.4795320
 117.7334600  68.4738570  54.2614230 117.0115160  69.4917370  55.1185090
 115.5464140  68.5322810  44.7318160 116.2335270  69.0792020  45.1125750
 114.7596560  69.0763540  44.7667770 107.6856540  64.1495630  40.2235240
 108.5551390  64.4320430  40.5071160 107.1946860  64.9631500  40.1084050
 114.8491350  65.5368840  44.3443520 115.3054130  66.3474090  44.5703710
 114.4979560  65.2191980  45.1762010 117.1523960  71.0475180  51.5735820
 117.7966180  71.2534560  52.2509240 117.5153400  70.2863580  51.1206670
 110.7503130  55.8806490  44.8166040 110.6217760  55.8724390  45.7650960
 109.9265150  56.2189580  44.4657050 108.0527790  73.3623010  40.7896870
 108.4125430  73.9612350  40.1354140 107.9120130  73.9082900  41.5631900
 107.7497060  57.6397610  54.2772740 107.0355580  57.8394530  54.8825350
 108.1692100  56.8637180  54.6487540 108.0369650  71.6277870  55.2639270
 108.1460770  70.6872610  55.1234660 107.3850210  71.8932620  54.6153000
 116.0282240  69.8993760  56.6637390 115.7079110  69.1803000  57.2083080
 115.3540600  70.5748830  56.7373450 114.0696410  70.7454210  41.6070540
 114.0606510  71.4783900  40.9915050 113.1494770  70.4985790  41.6997500
 109.6703050  65.9669100  42.3517300 109.0631000  66.7068000  42.3612600
 110.1452400  66.0568460  41.5255500 117.0556010  70.8082450  40.2695730
 117.1567990  70.6046440  39.3397710 116.1557750  70.5540730  40.4743510
 114.5781900  61.3662810  44.2519630 113.8698050  61.8349150  44.6933240
 114.8626380  60.7084820  44.8864820 116.2037830  62.7859510  52.2512160
 116.7023080  63.2605330  52.9164010 116.3460780  61.8623030  52.4582190
 115.6974120  73.3268770  44.9643400 115.9515620  73.2890160  44.0422770
 114.7486600  73.2002100  44.9571650 112.7816920  59.6747890  41.6270340
 113.6307450  60.1118040  41.5610530 112.4148190  59.9868150  42.4542400
 111.6808340  65.9280250  40.1005870 112.4471610  65.8161610  40.6631300
 111.7583030  65.2318220  39.4482640 110.3755100  63.3605320  40.7838760
 110.4558690  62.4132830  40.8956160 111.2674850  63.6912200  40.8899420
 111.1769810  73.5100710  47.8873300 111.9132290  72.9616170  48.1581870
 111.5610730  74.3756720  47.7479290 108.0615290  69.5774280  43.7614810
 107.1355070  69.8195420  43.7520220 108.5271720  70.4048540  43.6399560
 110.1828090  72.6946780  57.0758880 110.9840820  73.0158830  57.4894280
 109.6679910  72.3342360  57.7978790 114.2872120  72.6831020  39.7098870
 115.0800730  72.9719850  39.2580660 113.7676470  72.2523190  39.0311350
 107.9025900  65.1820240  56.0194930 108.4064920  64.6027520  56.5911160
 107.1633320  65.4660470  56.5571300 114.8049520  67.9034430  39.5741220
 114.7000160  67.2886780  40.3002600 114.6373740  67.3800320  38.7904230
 114.9563840  66.5891230  55.5530450 114.1909510  67.1576230  55.4685120
 115.1379800  66.2967440  54.6598680 109.9348980  63.3249830  56.9145000
 109.9754320  63.0263700  57.8230230 110.7894480  63.7257440  56.7552520
 113.7127370  65.9245380  42.0748510 114.1343790  65.7585250  42.9179900
 113.8378210  65.1145610  41.5803650 111.8754790  61.9041930  54.8819490
 111.3451250  61.4132880  54.2542830 112.5442860  62.3326130  54.3477420
 116.2255010  64.9482990  39.3225610 116.7460670  64.2332010  38.9566760
 116.8723410  65.5868860  39.6226120 112.3627090  58.8704300  54.9616780
 112.2683960  58.2525050  54.2367650 111.7824480  59.5970590  54.7346690
 115.1288530  57.4277540  51.9944170 114.6805830  57.4501800  51.1489720
 114.4953730  57.0296560  52.5914470 115.5348080  66.3231870  52.6156610
 115.9536190  67.1664600  52.4432850 114.6156710  66.4603910  52.3863390
 112.6086270  61.9978610  39.0206670 112.4075330  61.1345970  39.3820010
 112.4378320  61.9111970  38.0828270 113.3855500  72.6284880  53.7314340
 112.8476590  73.3530940  53.4123040 113.6389460  72.1515220  52.9411680
 114.6380750  60.5969400  55.2570270 115.2280440  60.2885250  55.9448090
 113.8200990  60.1249150  55.4130170 111.4069070  59.0979230  39.0084550
 111.7094970  59.1046660  38.1003700 112.1463660  58.7477090  39.5052210
 116.2417710  73.8636090  53.9900990 116.1676410  74.7671230  54.2973360
 115.3396550  73.5447990  53.9623060 114.6254000  58.0413850  39.9940750
 114.2776000  57.3637840  39.4143200 114.8266770  57.5803360  40.8084140
 116.7903040  73.0294600  41.6127350 117.6853830  73.3679570  41.6346110
 116.8220670  72.3074010  40.9851630 110.4299200  68.4021650  39.8414350
 110.8674070  68.9451320  40.4971930 110.9146930  67.5768600  39.8510690
 107.6445000  71.1910680  47.2934610 107.9748010  70.3231740  47.0613250
 108.0736000  71.3969200  48.1239570 112.2406920  69.5219690  44.9536580
 111.9402460  69.3984660  45.8540490 112.1344410  68.6628280  44.5452310
 108.1335210  72.0581270  50.0316240 107.6966200  72.2382070  50.8640390
 108.7012890  72.8155890  49.8897960 107.9659640  64.5701500  46.3905120
 107.3108480  64.3013140  45.7464820 108.8037590  64.4605980  45.9407100
 109.0035570  64.9554070  50.9308460 109.3708610  64.8681470  51.8104480
 108.4346390  64.1920620  50.8315320 108.5551570  61.8663160  54.8366880
 107.6607620  61.8329920  55.1760590 109.0949120  62.0649950  55.6018130
 107.1797720  61.7800430  42.3330450 106.2761800  62.0430630  42.1582110
 107.6638340  62.0511600  41.5530410 109.7224930  60.8365970  40.2424830
 110.4316630  60.4149190  39.7572110 109.0064870  60.9041200  39.6108180
 109.3699090  56.8905300  39.2827480 110.0927220  57.4314240  39.6008700
 109.6423610  56.6168720  38.4069020 109.0591280  56.1411490  49.1850100
 109.7067470  55.5908870  48.7445260 109.4793120  56.3954640  50.0065910
 108.8123280  56.2967160  51.9275420 108.4638100  56.7530980  52.6933600
 108.4810980  55.4024290  52.0097850 110.4187650  69.4686760  56.0928610
 110.3757280  69.0979670  56.9743070 110.5498660  70.4064330  56.2330430
 114.1193680  71.0246350  51.6938330 113.8785040  71.2920910  50.8068850
 115.0596320  71.1952080  51.7489190 116.3248100  57.4879040  55.4494840
 116.2636990  58.0800870  56.1990250 117.2648480  57.3805000  55.3045100
 109.4843920  55.8243360  55.2026190 110.0326910  55.6431410  54.4392300
 109.5499230  55.0337470  55.7382500 110.2575680  72.4149010  53.2126390
 109.6636000  72.2833710  53.9516430 110.2499520  71.5787150  52.7468490
 109.8887910  69.7807390  52.1634430 109.1621970  69.1612680  52.0960380
 109.9497060  70.1748000  51.2932510 113.4933010  71.9952390  48.9483840
 114.0098030  71.3839750  48.4232100 114.1430390  72.4981170  49.4394850
 116.2328510  72.8860880  49.7752820 116.5206320  72.6315180  48.8985830
 116.7451730  72.3338240  50.3658390 117.4505520  56.6251080  50.3549330
 116.6677310  57.0996580  50.6346090 117.1568450  55.7205910  50.2462510
 108.1717910  73.0981780  45.3731190 108.0039950  72.4652460  46.0713080
 107.3052420  73.3041180  45.0225380 108.7945930  56.9298560  42.8763050
 109.5525290  57.0427440  42.3027080 108.3323100  57.7667760  42.8306480
 115.3359740  59.0437830  45.8665360 114.5234250  58.6694720  45.5261240
 115.8401380  58.2882910  46.1686550 109.7780610  71.7915010  42.8181330
 109.2528230  72.1723040  42.1143290 109.7025190  72.4165780  43.5391040
 111.1671080  57.4562610  41.4165020 111.6963840  56.6692410  41.2872970
 111.7999400  58.1353800  41.6500550 113.3608920  57.1937750  44.4710410
 112.7311660  56.4925060  44.6380540 112.8214060  57.9541880  44.2543570
 116.3000870  73.8076980  57.1421020 117.2268180  73.5721250  57.1856980
 116.2851300  74.6348980  56.6607050 113.4864480  56.4721730  56.9062900
 113.2048750  56.9755330  56.1423720 113.8684180  55.6743480  56.5405030
 112.3773580  73.7397390  41.6930580 113.1092400  73.4556670  41.1454470
 112.6367250  73.5010670  42.5829960 111.5388370  69.8562120  41.6976910
 110.9097250  70.3247220  42.2462740 111.6536200  69.0111340  42.1323100
 117.1256130  65.6846800  29.7287380 116.3498230  65.2047240  30.0185950
 117.7769060  65.0052450  29.5543540 111.1421960  65.9966610  30.6063140
 110.3106840  65.7415320  31.0059650 111.7502940  66.0677380  31.3421060
 111.1223220  70.0306700  30.8021160 111.4251260  69.1404440  30.6231380
 111.8666810  70.5876920  30.5743410 109.5513910  60.9568500  24.3905530
 108.6630610  61.2984470  24.2885410 109.8355100  60.7568820  23.4986360
 107.5146920  63.5574150  30.2745230 108.0863030  62.7896350  30.2748870
 107.5148460  63.8562910  29.3651840 116.5665120  68.3603990  29.7357540
 116.4973400  67.4193930  29.5746670 117.3284980  68.4505400  30.3080110
 108.7571790  58.9658510  32.0614160 108.5774630  58.0684260  32.3416920
 108.3551870  59.5130380  32.7361110 117.5970290  61.1674370  29.9626470
 117.9735110  60.2946250  29.8500140 117.4989800  61.5033070  29.0716910
 111.7275300  59.5400000  25.4243910 111.8342050  60.4403730  25.7312670
 110.8167660  59.4917970  25.1338560 109.3758460  61.4619010  30.6696500
 110.0568570  61.7257380  31.2883900 109.0606510  60.6219880  31.0034510
 113.5683030  62.5086370  29.7569090 114.0761250  63.0067340  30.3974110
 114.0996270  61.7321570  29.5808450 111.8519130  57.1484930  34.0232510
 111.8537570  57.6657320  33.2178410 111.0223440  56.6715110  34.0002440
 113.1021980  66.7880110  32.2006010 112.7691360  67.4149030  32.8427080
 113.2788660  67.3141990  31.4207680 111.5334460  58.8594890  32.0302960
 111.8751270  59.7036940  31.7356830 110.5950270  59.0078630  32.1468300
 112.3141080  68.7560910  34.0155190 112.9315080  69.4311990  33.7339640
 111.4534200  69.1648890  33.9242690 107.6073420  67.9460770  22.8962040
 107.2301400  68.4347870  22.1646940 107.8646490  68.6186050  23.5268570
 115.2162350  56.3477160  28.3547550 115.5237330  55.7924050  27.6383050
 114.2863050  56.4821620  28.1720540 117.6043110  64.4125990  25.0907670
 116.6772390  64.3463370  25.3196140 117.7567930  65.3506120  24.9762910
 117.5912190  60.6842990  22.0874830 116.6515860  60.8456950  22.1727290
 117.9095450  61.4028670  21.5410820 113.2099750  64.9390730  27.8727400
 112.8056750  64.2267980  27.3773300 113.2962870  64.5943970  28.7615440
 113.6781450  68.6258290  30.0366610 113.3809740  68.0203760  29.3574390
 114.6281270  68.6635600  29.9255970 111.9228370  61.7133940  31.6526440
 112.4742960  61.8229280  30.8779690 112.4371880  62.0871540  32.3681670
 112.7699880  68.3639980  36.6874410 111.8728410  68.5879950  36.9347810
 112.7952750  68.4874920  35.7385810 111.5971100  65.2353300  35.2631780
 111.4578870  66.1076100  35.6319180 110.7152460  64.8926110  35.1179720
 113.3951450  71.1775000  37.4716930 113.3666880  71.5817950  36.6045360
 113.2316420  70.2485360  37.3088530 109.9104380  63.8335710  25.3734050
 109.7901980  64.5597800  24.7615320 109.6005270  63.0638620  24.8961960
 107.5489750  67.0050850  31.1802690 107.6270170  67.1399620  30.2358410
 108.1631430  66.2966740  31.3730810 108.7937380  68.7051040  27.5908870
 108.3865460  68.8465630  26.7362470 109.6850390  68.4211200  27.3880080
 113.0659040  72.9196820  25.7031540 112.8901520  72.0032360  25.4899340
 112.2114780  73.2784110  25.9429340 107.6049270  68.0465020  33.7197150
 107.7680310  67.5770380  32.9016520 108.0701720  67.5388580  34.3845990
 112.3768040  57.1770780  28.7557720 111.9336190  57.9580320  28.4242240
 112.9353030  57.5000670  29.4628660 116.6637850  60.0439300  34.3593040
 116.2017220  60.2522320  35.1712980 116.2615960  59.2298650  34.0563710
 115.4926860  56.7981480  23.6363550 114.8681040  56.7941350  24.3616860
 115.4056980  55.9312440  23.2399520 114.4143940  57.7218110  30.6147320
 114.7116270  58.6280940  30.5339340 114.9629500  57.2336890  30.0006890
 112.1682260  62.3004350  26.4838970 111.9423180  62.0841520  27.3885590
 111.3874790  62.7332810  26.1384940 114.6081470  63.1989930  37.1499240
 114.5125070  62.2584660  36.9999640 115.4513450  63.4205000  36.7547310
 109.7392010  59.6103600  35.3033020 109.3455400  60.4578810  35.5105800
 109.0510410  58.9729970  35.4941660 116.3137060  59.6938570  38.3729760
 115.6235380  59.5010770  39.0075850 117.0569360  59.9773210  38.9054060
 107.0409060  57.5332060  29.3363100 106.7522110  58.1034920  30.0488080
 107.7854820  57.0536510  29.6994330 107.2279290  61.4752180  20.5465820
 107.1453960  62.4182940  20.6880810 106.8762350  61.3327090  19.6678170
 115.0277420  60.2091210  29.6136170 115.0313480  59.7681160  28.7640710
 115.9228540  60.5308540  29.7207990 110.8779800  60.0917700  28.5730380
 110.5379850  60.5692930  29.3297430 110.1157120  59.6382820  28.2131480
 115.0897570  61.2103290  22.6042930 115.2110390  61.1689770  23.5528750
 114.7046080  62.0727440  22.4489660 114.1019070  63.5204430  22.0026230
 113.5335970  63.0722680  21.3762140 114.8108070  63.8797210  21.4691380
 109.1788250  67.4216450  35.8792960 108.7943040  66.7810120  36.4775920
 109.4900440  68.1252570  36.4487690 115.3285390  64.2692990  31.3601580
 115.6955520  63.7951560  32.1062920 115.1390450  65.1434560  31.7009920
 108.1925880  59.0136680  27.4895050 107.9072800  58.6492350  28.3273670
 108.1304740  58.2817140  26.8758190 113.1184760  63.3101630  33.6785790
 112.8141830  64.1893610  33.9036150 114.0731220  63.3701420  33.7143230
 111.6466550  67.5162620  24.2752640 110.8728810  66.9760240  24.1151360
 112.3761180  66.9969230  23.9370400 117.8664470  57.9065940  24.2108420
 117.0529080  57.4079110  24.1353730 117.6726420  58.7464190  23.7944770
 117.7873330  66.5837040  35.9548030 117.7210640  65.6632710  35.7005620
 117.1578470  66.6812480  36.6692670 111.6903950  67.1843000  27.9131450
 112.2082620  66.3811260  27.8588340 111.2387970  67.1222140  28.7548280
 116.5773450  68.4509280  23.1858750 116.9189150  69.1951510  22.6902070
 115.7486160  68.7640400  23.5483580 109.1748490  64.1504370  34.8257150
 108.8163430  64.8158220  35.4130490 108.8803050  63.3187920  35.1969770
 112.3761610  64.6088610  37.7096700 112.0761750  64.7545790  36.8124520
 113.1472850  64.0493900  37.6170090 117.7190060  69.4057610  35.7051830
 117.7334600  68.4738570  35.4870740 117.0115160  69.4917370  36.3441600
 115.5464140  68.5322810  25.9574670 116.2335270  69.0792020  26.3382260
 114.7596560  69.0763540  25.9924280 107.6856540  64.1495630  21.4491750
 108.5551390  64.4320430  21.7327670 107.1946860  64.9631500  21.3340560
 114.8491350  65.5368840  25.5700030 115.3054130  66.3474090  25.7960220
 114.4979560  65.2191980  26.4018520 117.1523960  71.0475180  32.7992330
 117.7966180  71.2534560  33.4765750 117.5153400  70.2863580  32.3463180
 110.7503130  55.8806490  26.0422550 110.6217760  55.8724390  26.9907470
 109.9265150  56.2189580  25.6913560 108.0527790  73.3623010  22.0153380
 108.4125430  73.9612350  21.3610650 107.9120130  73.9082900  22.7888410
 107.7497060  57.6397610  35.5029250 107.0355580  57.8394530  36.1081860
 108.1692100  56.8637180  35.8744050 108.0369650  71.6277870  36.4895780
 108.1460770  70.6872610  36.3491170 107.3850210  71.8932620  35.8409510
 116.0282240  69.8993760  37.8893900 115.7079110  69.1803000  38.4339590
 115.3540600  70.5748830  37.9629960 114.0696410  70.7454210  22.8327050
 114.0606510  71.4783900  22.2171560 113.1494770  70.4985790  22.9254010
 109.6703050  65.9669100  23.5773810 109.0631000  66.7068000  23.5869110
 110.1452400  66.0568460  22.7512010 117.0556010  70.8082450  21.4952240
 117.1567990  70.6046440  20.5654220 116.1557750  70.5540730  21.7000020
 114.5781900  61.3662810  25.4776140 113.8698050  61.8349150  25.9189750
 114.8626380  60.7084820  26.1121330 116.2037830  62.7859510  33.4768670
 116.7023080  63.2605330  34.1420520 116.3460780  61.8623030  33.6838700
 115.6974120  73.3268770  26.1899910 115.9515620  73.2890160  25.2679280
 114.7486600  73.2002100  26.1828160 112.7816920  59.6747890  22.8526850
 113.6307450  60.1118040  22.7867040 112.4148190  59.9868150  23.6798910
 111.6808340  65.9280250  21.3262380 112.4471610  65.8161610  21.8887810
 111.7583030  65.2318220  20.6739150 110.3755100  63.3605320  22.0095270
 110.4558690  62.4132830  22.1212670 111.2674850  63.6912200  22.1155930
 111.1769810  73.5100710  29.1129810 111.9132290  72.9616170  29.3838380
 111.5610730  74.3756720  28.9735800 108.0615290  69.5774280  24.9871320
 107.1355070  69.8195420  24.9776730 108.5271720  70.4048540  24.8656070
 110.1828090  72.6946780  38.3015390 110.9840820  73.0158830  38.7150790
 109.6679910  72.3342360  39.0235300 114.2872120  72.6831020  20.9355380
 115.0800730  72.9719850  20.4837170 113.7676470  72.2523190  20.2567860
 107.9025900  65.1820240  37.2451440 108.4064920  64.6027520  37.8167670
 107.1633320  65.4660470  37.7827810 114.8049520  67.9034430  20.7997730
 114.7000160  67.2886780  21.5259110 114.6373740  67.3800320  20.0160740
 114.9563840  66.5891230  36.7786960 114.1909510  67.1576230  36.6941630
 115.1379800  66.2967440  35.8855190 109.9348980  63.3249830  38.1401510
 109.9754320  63.0263700  39.0486740 110.7894480  63.7257440  37.9809030
 113.7127370  65.9245380  23.3005020 114.1343790  65.7585250  24.1436410
 113.8378210  65.1145610  22.8060160 111.8754790  61.9041930  36.1076000
 111.3451250  61.4132880  35.4799340 112.5442860  62.3326130  35.5733930
 116.2255010  64.9482990  20.5482120 116.7460670  64.2332010  20.1823270
 116.8723410  65.5868860  20.8482630 112.3627090  58.8704300  36.1873290
 112.2683960  58.2525050  35.4624160 111.7824480  59.5970590  35.9603200
 115.1288530  57.4277540  33.2200680 114.6805830  57.4501800  32.3746230
 114.4953730  57.0296560  33.8170980 115.5348080  66.3231870  33.8413120
 115.9536190  67.1664600  33.6689360 114.6156710  66.4603910  33.6119900
 112.6086270  61.9978610  20.2463180 112.4075330  61.1345970  20.6076520
 112.4378320  61.9111970  19.3084780 113.3855500  72.6284880  34.9570850
 112.8476590  73.3530940  34.6379550 113.6389460  72.1515220  34.1668190
 114.6380750  60.5969400  36.4826780 115.2280440  60.2885250  37.1704600
 113.8200990  60.1249150  36.6386680 111.4069070  59.0979230  20.2341060
 111.7094970  59.1046660  19.3260210 112.1463660  58.7477090  20.7308720
 116.2417710  73.8636090  35.2157500 116.1676410  74.7671230  35.5229870
 115.3396550  73.5447990  35.1879570 114.6254000  58.0413850  21.2197260
 114.2776000  57.3637840  20.6399710 114.8266770  57.5803360  22.0340650
 116.7903040  73.0294600  22.8383860 117.6853830  73.3679570  22.8602620
 116.8220670  72.3074010  22.2108140 110.4299200  68.4021650  21.0670860
 110.8674070  68.9451320  21.7228440 110.9146930  67.5768600  21.0767200
 107.6445000  71.1910680  28.5191120 107.9748010  70.3231740  28.2869760
 108.0736000  71.3969200  29.3496080 112.2406920  69.5219690  26.1793090
 111.9402460  69.3984660  27.0797000 112.1344410  68.6628280  25.7708820
 108.1335210  72.0581270  31.2572750 107.6966200  72.2382070  32.0896900
 108.7012890  72.8155890  31.1154470 107.9659640  64.5701500  27.6161630
 107.3108480  64.3013140  26.9721330 108.8037590  64.4605980  27.1663610
 109.0035570  64.9554070  32.1564970 109.3708610  64.8681470  33.0360990
 108.4346390  64.1920620  32.0571830 108.5551570  61.8663160  36.0623390
 107.6607620  61.8329920  36.4017100 109.0949120  62.0649950  36.8274640
 107.1797720  61.7800430  23.5586960 106.2761800  62.0430630  23.3838620
 107.6638340  62.0511600  22.7786920 109.7224930  60.8365970  21.4681340
 110.4316630  60.4149190  20.9828620 109.0064870  60.9041200  20.8364690
 109.3699090  56.8905300  20.5083990 110.0927220  57.4314240  20.8265210
 109.6423610  56.6168720  19.6325530 109.0591280  56.1411490  30.4106610
 109.7067470  55.5908870  29.9701770 109.4793120  56.3954640  31.2322420
 108.8123280  56.2967160  33.1531930 108.4638100  56.7530980  33.9190110
 108.4810980  55.4024290  33.2354360 110.4187650  69.4686760  37.3185120
 110.3757280  69.0979670  38.1999580 110.5498660  70.4064330  37.4586940
 114.1193680  71.0246350  32.9194840 113.8785040  71.2920910  32.0325360
 115.0596320  71.1952080  32.9745700 116.3248100  57.4879040  36.6751350
 116.2636990  58.0800870  37.4246760 117.2648480  57.3805000  36.5301610
 109.4843920  55.8243360  36.4282700 110.0326910  55.6431410  35.6648810
 109.5499230  55.0337470  36.9639010 110.2575680  72.4149010  34.4382900
 109.6636000  72.2833710  35.1772940 110.2499520  71.5787150  33.9725000
 109.8887910  69.7807390  33.3890940 109.1621970  69.1612680  33.3216890
 109.9497060  70.1748000  32.5189020 113.4933010  71.9952390  30.1740350
 114.0098030  71.3839750  29.6488610 114.1430390  72.4981170  30.6651360
 116.2328510  72.8860880  31.0009330 116.5206320  72.6315180  30.1242340
 116.7451730  72.3338240  31.5914900 117.4505520  56.6251080  31.5805840
 116.6677310  57.0996580  31.8602600 117.1568450  55.7205910  31.4719020
 108.1717910  73.0981780  26.5987700 108.0039950  72.4652460  27.2969590
 107.3052420  73.3041180  26.2481890 108.7945930  56.9298560  24.1019560
 109.5525290  57.0427440  23.5283590 108.3323100  57.7667760  24.0562990
 115.3359740  59.0437830  27.0921870 114.5234250  58.6694720  26.7517750
 115.8401380  58.2882910  27.3943060 109.7780610  71.7915010  24.0437840
 109.2528230  72.1723040  23.3399800 109.7025190  72.4165780  24.7647550
 111.1671080  57.4562610  22.6421530 111.6963840  56.6692410  22.5129480
 111.7999400  58.1353800  22.8757060 113.3608920  57.1937750  25.6966920
 112.7311660  56.4925060  25.8637050 112.8214060  57.9541880  25.4800080
 116.3000870  73.8076980  38.3677530 117.2268180  73.5721250  38.4113490
 116.2851300  74.6348980  37.8863560 113.4864480  56.4721730  38.1319410
 113.2048750  56.9755330  37.3680230 113.8684180  55.6743480  37.7661540
 112.3773580  73.7397390  22.9187090 113.1092400  73.4556670  22.3710980
 112.6367250  73.5010670  23.8086470 111.5388370  69.8562120  22.9233420
 110.9097250  70.3247220  23.4719250 111.6536200  69.0111340  23.3579610
 117.1256130  65.6846800  10.9543890 116.3498230  65.2047240  11.2442460
 117.7769060  65.0052450  10.7800050 111.1421960  65.9966610  11.8319650
 110.3106840  65.7415320  12.2316160 111.7502940  66.0677380  12.5677570
 111.1223220  70.0306700  12.0277670 111.4251260  69.1404440  11.8487890
 111.8666810  70.5876920  11.7999920 109.5513910  60.9568500   5.6162040
 108.6630610  61.2984470   5.5141920 109.8355100  60.7568820   4.7242870
 107.5146920  63.5574150  11.5001740 108.0863030  62.7896350  11.5005380
 107.5148460  63.8562910  10.5908350 116.5665120  68.3603990  10.9614050
 116.4973400  67.4193930  10.8003180 117.3284980  68.4505400  11.5336620
 108.7571790  58.9658510  13.2870670 108.5774630  58.0684260  13.5673430
 108.3551870  59.5130380  13.9617620 117.5970290  61.1674370  11.1882980
 117.9735110  60.2946250  11.0756650 117.4989800  61.5033070  10.2973420
 111.7275300  59.5400000   6.6500420 111.8342050  60.4403730   6.9569180
 110.8167660  59.4917970   6.3595070 109.3758460  61.4619010  11.8953010
 110.0568570  61.7257380  12.5140410 109.0606510  60.6219880  12.2291020
 113.5683030  62.5086370  10.9825600 114.0761250  63.0067340  11.6230620
 114.0996270  61.7321570  10.8064960 111.8519130  57.1484930  15.2489020
 111.8537570  57.6657320  14.4434920 111.0223440  56.6715110  15.2258950
 113.1021980  66.7880110  13.4262520 112.7691360  67.4149030  14.0683590
 113.2788660  67.3141990  12.6464190 111.5334460  58.8594890  13.2559470
 111.8751270  59.7036940  12.9613340 110.5950270  59.0078630  13.3724810
 112.3141080  68.7560910  15.2411700 112.9315080  69.4311990  14.9596150
 111.4534200  69.1648890  15.1499200 107.6073420  67.9460770   4.1218550
 107.2301400  68.4347870   3.3903450 107.8646490  68.6186050   4.7525080
 115.2162350  56.3477160   9.5804060 115.5237330  55.7924050   8.8639560
 114.2863050  56.4821620   9.3977050 117.6043110  64.4125990   6.3164180
 116.6772390  64.3463370   6.5452650 117.7567930  65.3506120   6.2019420
 117.5912190  60.6842990   3.3131340 116.6515860  60.8456950   3.3983800
 117.9095450  61.4028670   2.7667330 113.2099750  64.9390730   9.0983910
 112.8056750  64.2267980   8.6029810 113.2962870  64.5943970   9.9871950
 113.6781450  68.6258290  11.2623120 113.3809740  68.0203760  10.5830900
 114.6281270  68.6635600  11.1512480 111.9228370  61.7133940  12.8782950
 112.4742960  61.8229280  12.1036200 112.4371880  62.0871540  13.5938180
 112.7699880  68.3639980  17.9130920 111.8728410  68.5879950  18.1604320
 112.7952750  68.4874920  16.9642320 111.5971100  65.2353300  16.4888290
 111.4578870  66.1076100  16.8575690 110.7152460  64.8926110  16.3436230
 113.3951450  71.1775000  18.6973440 113.3666880  71.5817950  17.8301870
 113.2316420  70.2485360  18.5345040 109.9104380  63.8335710   6.5990560
 109.7901980  64.5597800   5.9871830 109.6005270  63.0638620   6.1218470
 107.5489750  67.0050850  12.4059200 107.6270170  67.1399620  11.4614920
 108.1631430  66.2966740  12.5987320 108.7937380  68.7051040   8.8165380
 108.3865460  68.8465630   7.9618980 109.6850390  68.4211200   8.6136590
 113.0659040  72.9196820   6.9288050 112.8901520  72.0032360   6.7155850
 112.2114780  73.2784110   7.1685850 107.6049270  68.0465020  14.9453660
 107.7680310  67.5770380  14.1273030 108.0701720  67.5388580  15.6102500
 112.3768040  57.1770780   9.9814230 111.9336190  57.9580320   9.6498750
 112.9353030  57.5000670  10.6885170 116.6637850  60.0439300  15.5849550
 116.2017220  60.2522320  16.3969490 116.2615960  59.2298650  15.2820220
 115.4926860  56.7981480   4.8620060 114.8681040  56.7941350   5.5873370
 115.4056980  55.9312440   4.4656030 114.4143940  57.7218110  11.8403830
 114.7116270  58.6280940  11.7595850 114.9629500  57.2336890  11.2263400
 112.1682260  62.3004350   7.7095480 111.9423180  62.0841520   8.6142100
 111.3874790  62.7332810   7.3641450 114.6081470  63.1989930  18.3755750
 114.5125070  62.2584660  18.2256150 115.4513450  63.4205000  17.9803820
 109.7392010  59.6103600  16.5289530 109.3455400  60.4578810  16.7362310
 109.0510410  58.9729970  16.7198170 116.3137060  59.6938570  19.5986270
 115.6235380  59.5010770  20.2332360 117.0569360  59.9773210  20.1310570
 107.0409060  57.5332060  10.5619610 106.7522110  58.1034920  11.2744590
 107.7854820  57.0536510  10.9250840 115.0277420  60.2091210  10.8392680
 115.0313480  59.7681160   9.9897220 115.9228540  60.5308540  10.9464500
 110.8779800  60.0917700   9.7986890 110.5379850  60.5692930  10.5553940
 110.1157120  59.6382820   9.4387990 115.0897570  61.2103290   3.8299440
 115.2110390  61.1689770   4.7785260 114.7046080  62.0727440   3.6746170
 114.1019070  63.5204430   3.2282740 113.5335970  63.0722680   2.6018650
 114.8108070  63.8797210   2.6947890 109.1788250  67.4216450  17.1049470
 108.7943040  66.7810120  17.7032430 109.4900440  68.1252570  17.6744200
 115.3285390  64.2692990  12.5858090 115.6955520  63.7951560  13.3319430
 115.1390450  65.1434560  12.9266430 108.1925880  59.0136680   8.7151560
 107.9072800  58.6492350   9.5530180 108.1304740  58.2817140   8.1014700
 113.1184760  63.3101630  14.9042300 112.8141830  64.1893610  15.1292660
 114.0731220  63.3701420  14.9399740 111.6466550  67.5162620   5.5009150
 110.8728810  66.9760240   5.3407870 112.3761180  66.9969230   5.1626910
 117.8664470  57.9065940   5.4364930 117.0529080  57.4079110   5.3610240
 117.6726420  58.7464190   5.0201280 117.7873330  66.5837040  17.1804540
 117.7210640  65.6632710  16.9262130 117.1578470  66.6812480  17.8949180
 111.6903950  67.1843000   9.1387960 112.2082620  66.3811260   9.0844850
 111.2387970  67.1222140   9.9804790 116.5773450  68.4509280   4.4115260
 116.9189150  69.1951510   3.9158580 115.7486160  68.7640400   4.7740090
 109.1748490  64.1504370  16.0513660 108.8163430  64.8158220  16.6387000
 108.8803050  63.3187920  16.4226280 112.3761610  64.6088610  18.9353210
 112.0761750  64.7545790  18.0381030 113.1472850  64.0493900  18.8426600
 117.7190060  69.4057610  16.9308340 117.7334600  68.4738570  16.7127250
 117.0115160  69.4917370  17.5698110 115.5464140  68.5322810   7.1831180
 116.2335270  69.0792020   7.5638770 114.7596560  69.0763540   7.2180790
 107.6856540  64.1495630   2.6748260 108.5551390  64.4320430   2.9584180
 107.1946860  64.9631500   2.5597070 114.8491350  65.5368840   6.7956540
 115.3054130  66.3474090   7.0216730 114.4979560  65.2191980   7.6275030
 117.1523960  71.0475180  14.0248840 117.7966180  71.2534560  14.7022260
 117.5153400  70.2863580  13.5719690 110.7503130  55.8806490   7.2679060
 110.6217760  55.8724390   8.2163980 109.9265150  56.2189580   6.9170070
 108.0527790  73.3623010   3.2409890 108.4125430  73.9612350   2.5867160
 107.9120130  73.9082900   4.0144920 107.7497060  57.6397610  16.7285760
 107.0355580  57.8394530  17.3338370 108.1692100  56.8637180  17.1000560
 108.0369650  71.6277870  17.7152290 108.1460770  70.6872610  17.5747680
 107.3850210  71.8932620  17.0666020 116.0282240  69.8993760  19.1150410
 115.7079110  69.1803000  19.6596100 115.3540600  70.5748830  19.1886470
 114.0696410  70.7454210   4.0583560 114.0606510  71.4783900   3.4428070
 113.1494770  70.4985790   4.1510520 109.6703050  65.9669100   4.8030320
 109.0631000  66.7068000   4.8125620 110.1452400  66.0568460   3.9768520
 117.0556010  70.8082450   2.7208750 117.1567990  70.6046440   1.7910730
 116.1557750  70.5540730   2.9256530 114.5781900  61.3662810   6.7032650
 113.8698050  61.8349150   7.1446260 114.8626380  60.7084820   7.3377840
 116.2037830  62.7859510  14.7025180 116.7023080  63.2605330  15.3677030
 116.3460780  61.8623030  14.9095210 115.6974120  73.3268770   7.4156420
 115.9515620  73.2890160   6.4935790 114.7486600  73.2002100   7.4084670
 112.7816920  59.6747890   4.0783360 113.6307450  60.1118040   4.0123550
 112.4148190  59.9868150   4.9055420 111.6808340  65.9280250   2.5518890
 112.4471610  65.8161610   3.1144320 111.7583030  65.2318220   1.8995660
 110.3755100  63.3605320   3.2351780 110.4558690  62.4132830   3.3469180
 111.2674850  63.6912200   3.3412440 111.1769810  73.5100710  10.3386320
 111.9132290  72.9616170  10.6094890 111.5610730  74.3756720  10.1992310
 108.0615290  69.5774280   6.2127830 107.1355070  69.8195420   6.2033240
 108.5271720  70.4048540   6.0912580 110.1828090  72.6946780  19.5271900
 110.9840820  73.0158830  19.9407300 109.6679910  72.3342360  20.2491810
 114.2872120  72.6831020   2.1611890 115.0800730  72.9719850   1.7093680
 113.7676470  72.2523190   1.4824370 107.9025900  65.1820240  18.4707950
 108.4064920  64.6027520  19.0424180 107.1633320  65.4660470  19.0084320
 114.9563840  66.5891230  18.0043470 114.1909510  67.1576230  17.9198140
 115.1379800  66.2967440  17.1111700 109.9348980  63.3249830  19.3658020
 109.9754320  63.0263700  20.2743250 110.7894480  63.7257440  19.2065540
 113.7127370  65.9245380   4.5261530 114.1343790  65.7585250   5.3692920
 113.8378210  65.1145610   4.0316670 111.8754790  61.9041930  17.3332510
 111.3451250  61.4132880  16.7055850 112.5442860  62.3326130  16.7990440
 112.3627090  58.8704300  17.4129800 112.2683960  58.2525050  16.6880670
 111.7824480  59.5970590  17.1859710 115.1288530  57.4277540  14.4457190
 114.6805830  57.4501800  13.6002740 114.4953730  57.0296560  15.0427490
 115.5348080  66.3231870  15.0669630 115.9536190  67.1664600  14.8945870
 114.6156710  66.4603910  14.8376410 113.3855500  72.6284880  16.1827360
 112.8476590  73.3530940  15.8636060 113.6389460  72.1515220  15.3924700
 114.6380750  60.5969400  17.7083290 115.2280440  60.2885250  18.3961110
 113.8200990  60.1249150  17.8643190 116.2417710  73.8636090  16.4414010
 116.1676410  74.7671230  16.7486380 115.3396550  73.5447990  16.4136080
 114.6254000  58.0413850   2.4453770 114.2776000  57.3637840   1.8656220
 114.8266770  57.5803360   3.2597160 116.7903040  73.0294600   4.0640370
 117.6853830  73.3679570   4.0859130 116.8220670  72.3074010   3.4364650
 110.4299200  68.4021650   2.2927370 110.8674070  68.9451320   2.9484950
 110.9146930  67.5768600   2.3023710 107.6445000  71.1910680   9.7447630
 107.9748010  70.3231740   9.5126270 108.0736000  71.3969200  10.5752590
 112.2406920  69.5219690   7.4049600 111.9402460  69.3984660   8.3053510
 112.1344410  68.6628280   6.9965330 108.1335210  72.0581270  12.4829260
 107.6966200  72.2382070  13.3153410 108.7012890  72.8155890  12.3410980
 107.9659640  64.5701500   8.8418140 107.3108480  64.3013140   8.1977840
 108.8037590  64.4605980   8.3920120 109.0035570  64.9554070  13.3821480
 109.3708610  64.8681470  14.2617500 108.4346390  64.1920620  13.2828340
 108.5551570  61.8663160  17.2879900 107.6607620  61.8329920  17.6273610
 109.0949120  62.0649950  18.0531150 107.1797720  61.7800430   4.7843470
 106.2761800  62.0430630   4.6095130 107.6638340  62.0511600   4.0043430
 109.7224930  60.8365970   2.6937850 110.4316630  60.4149190   2.2085130
 109.0064870  60.9041200   2.0621200 109.0591280  56.1411490  11.6363120
 109.7067470  55.5908870  11.1958280 109.4793120  56.3954640  12.4578930
 108.8123280  56.2967160  14.3788440 108.4638100  56.7530980  15.1446620
 108.4810980  55.4024290  14.4610870 110.4187650  69.4686760  18.5441630
 110.3757280  69.0979670  19.4256090 110.5498660  70.4064330  18.6843450
 114.1193680  71.0246350  14.1451350 113.8785040  71.2920910  13.2581870
 115.0596320  71.1952080  14.2002210 116.3248100  57.4879040  17.9007860
 116.2636990  58.0800870  18.6503270 117.2648480  57.3805000  17.7558120
 109.4843920  55.8243360  17.6539210 110.0326910  55.6431410  16.8905320
 109.5499230  55.0337470  18.1895520 110.2575680  72.4149010  15.6639410
 109.6636000  72.2833710  16.4029450 110.2499520  71.5787150  15.1981510
 109.8887910  69.7807390  14.6147450 109.1621970  69.1612680  14.5473400
 109.9497060  70.1748000  13.7445530 113.4933010  71.9952390  11.3996860
 114.0098030  71.3839750  10.8745120 114.1430390  72.4981170  11.8907870
 116.2328510  72.8860880  12.2265840 116.5206320  72.6315180  11.3498850
 116.7451730  72.3338240  12.8171410 117.4505520  56.6251080  12.8062350
 116.6677310  57.0996580  13.0859110 117.1568450  55.7205910  12.6975530
 108.1717910  73.0981780   7.8244210 108.0039950  72.4652460   8.5226100
 107.3052420  73.3041180   7.4738400 108.7945930  56.9298560   5.3276070
 109.5525290  57.0427440   4.7540100 108.3323100  57.7667760   5.2819500
 115.3359740  59.0437830   8.3178380 114.5234250  58.6694720   7.9774260
 115.8401380  58.2882910   8.6199570 109.7780610  71.7915010   5.2694350
 109.2528230  72.1723040   4.5656310 109.7025190  72.4165780   5.9904060
 111.1671080  57.4562610   3.8678040 111.6963840  56.6692410   3.7385990
 111.7999400  58.1353800   4.1013570 113.3608920  57.1937750   6.9223430
 112.7311660  56.4925060   7.0893560 112.8214060  57.9541880   6.7056590
 116.3000870  73.8076980  19.5934040 117.2268180  73.5721250  19.6370000
 116.2851300  74.6348980  19.1120070 113.4864480  56.4721730  19.3575920
 113.2048750  56.9755330  18.5936740 113.8684180  55.6743480  18.9918050
 112.3773580  73.7397390   4.1443600 113.1092400  73.4556670   3.5967490
 112.6367250  73.5010670   5.0342980 111.5388370  69.8562120   4.1489930
 110.9097250  70.3247220   4.6975760 111.6536200  69.0111340   4.5836120
 117.1256130  46.9103310  67.2774360 116.3498230  46.4303750  67.5672930
 117.7769060  46.2308960  67.1030520 111.1421960  47.2223120  68.1550120
 110.3106840  46.9671830  68.5546630 111.7502940  47.2933890  68.8908040
 111.1223220  51.2563210  68.3508140 111.4251260  50.3660950  68.1718360
 111.8666810  51.8133430  68.1230390 109.5513910  42.1825010  61.9392510
 108.6630610  42.5240980  61.8372390 109.8355100  41.9825330  61.0473340
 107.5146920  44.7830660  67.8232210 108.0863030  44.0152860  67.8235850
 107.5148460  45.0819420  66.9138820 116.5665120  49.5860500  67.2844520
 116.4973400  48.6450440  67.1233650 117.3284980  49.6761910  67.8567090
 108.7571790  40.1915020  69.6101140 108.5774630  39.2940770  69.8903900
 108.3551870  40.7386890  70.2848090 117.5970290  42.3930880  67.5113450
 117.9735110  41.5202760  67.3987120 117.4989800  42.7289580  66.6203890
 111.7275300  40.7656510  62.9730890 111.8342050  41.6660240  63.2799650
 110.8167660  40.7174480  62.6825540 109.3758460  42.6875520  68.2183480
 110.0568570  42.9513890  68.8370880 109.0606510  41.8476390  68.5521490
 113.5683030  43.7342880  67.3056070 114.0761250  44.2323850  67.9461090
 114.0996270  42.9578080  67.1295430 111.8519130  38.3741440  71.5719490
 111.8537570  38.8913830  70.7665390 111.0223440  37.8971620  71.5489420
 113.1021980  48.0136620  69.7492990 112.7691360  48.6405540  70.3914060
 113.2788660  48.5398500  68.9694660 111.5334460  40.0851400  69.5789940
 111.8751270  40.9293450  69.2843810 110.5950270  40.2335140  69.6955280
 112.3141080  49.9817420  71.5642170 112.9315080  50.6568500  71.2826620
 111.4534200  50.3905400  71.4729670 107.6073420  49.1717280  60.4449020
 107.2301400  49.6604380  59.7133920 107.8646490  49.8442560  61.0755550
 115.2162350  37.5733670  65.9034530 115.5237330  37.0180560  65.1870030
 114.2863050  37.7078130  65.7207520 117.6043110  45.6382500  62.6394650
 116.6772390  45.5719880  62.8683120 117.7567930  46.5762630  62.5249890
 117.5912190  41.9099500  59.6361810 116.6515860  42.0713460  59.7214270
 117.9095450  42.6285180  59.0897800 113.2099750  46.1647240  65.4214380
 112.8056750  45.4524490  64.9260280 113.2962870  45.8200480  66.3102420
 113.6781450  49.8514800  67.5853590 113.3809740  49.2460270  66.9061370
 114.6281270  49.8892110  67.4742950 111.9228370  42.9390450  69.2013420
 112.4742960  43.0485790  68.4266670 112.4371880  43.3128050  69.9168650
 112.7699880  49.5896490  74.2361390 111.8728410  49.8136460  74.4834790
 112.7952750  49.7131430  73.2872790 111.5971100  46.4609810  72.8118760
 111.4578870  47.3332610  73.1806160 110.7152460  46.1182620  72.6666700
 113.3951450  52.4031510  75.0203910 113.3666880  52.8074460  74.1532340
 113.2316420  51.4741870  74.8575510 109.9104380  45.0592220  62.9221030
 109.7901980  45.7854310  62.3102300 109.6005270  44.2895130  62.4448940
 107.5489750  48.2307360  68.7289670 107.6270170  48.3656130  67.7845390
 108.1631430  47.5223250  68.9217790 108.7937380  49.9307550  65.1395850
 108.3865460  50.0722140  64.2849450 109.6850390  49.6467710  64.9367060
 113.0659040  54.1453330  63.2518520 112.8901520  53.2288870  63.0386320
 112.2114780  54.5040620  63.4916320 107.6049270  49.2721530  71.2684130
 107.7680310  48.8026890  70.4503500 108.0701720  48.7645090  71.9332970
 112.3768040  38.4027290  66.3044700 111.9336190  39.1836830  65.9729220
 112.9353030  38.7257180  67.0115640 116.6637850  41.2695810  71.9080020
 116.2017220  41.4778830  72.7199960 116.2615960  40.4555160  71.6050690
 115.4926860  38.0237990  61.1850530 114.8681040  38.0197860  61.9103840
 115.4056980  37.1568950  60.7886500 114.4143940  38.9474620  68.1634300
 114.7116270  39.8537450  68.0826320 114.9629500  38.4593400  67.5493870
 112.1682260  43.5260860  64.0325950 111.9423180  43.3098030  64.9372570
 111.3874790  43.9589320  63.6871920 114.6081470  44.4246440  74.6986220
 114.5125070  43.4841170  74.5486620 115.4513450  44.6461510  74.3034290
 109.7392010  40.8360110  72.8520000 109.3455400  41.6835320  73.0592780
 109.0510410  40.1986480  73.0428640 107.0409060  38.7588570  66.8850080
 106.7522110  39.3291430  67.5975060 107.7854820  38.2793020  67.2481310
 107.2279290  42.7008690  58.0952800 107.1453960  43.6439450  58.2367790
 106.8762350  42.5583600  57.2165150 115.0277420  41.4347720  67.1623150
 115.0313480  40.9937670  66.3127690 115.9228540  41.7565050  67.2694970
 110.8779800  41.3174210  66.1217360 110.5379850  41.7949440  66.8784410
 110.1157120  40.8639330  65.7618460 115.0897570  42.4359800  60.1529910
 115.2110390  42.3946280  61.1015730 114.7046080  43.2983950  59.9976640
 114.1019070  44.7460940  59.5513210 113.5335970  44.2979190  58.9249120
 114.8108070  45.1053720  59.0178360 109.1788250  48.6472960  73.4279940
 108.7943040  48.0066630  74.0262900 109.4900440  49.3509080  73.9974670
 115.3285390  45.4949500  68.9088560 115.6955520  45.0208070  69.6549900
 115.1390450  46.3691070  69.2496900 108.1925880  40.2393190  65.0382030
 107.9072800  39.8748860  65.8760650 108.1304740  39.5073650  64.4245170
 113.1184760  44.5358140  71.2272770 112.8141830  45.4150120  71.4523130
 114.0731220  44.5957930  71.2630210 111.6466550  48.7419130  61.8239620
 110.8728810  48.2016750  61.6638340 112.3761180  48.2225740  61.4857380
 117.8664470  39.1322450  61.7595400 117.0529080  38.6335620  61.6840710
 117.6726420  39.9720700  61.3431750 117.7873330  47.8093550  73.5035010
 117.7210640  46.8889220  73.2492600 117.1578470  47.9068990  74.2179650
 111.6903950  48.4099510  65.4618430 112.2082620  47.6067770  65.4075320
 111.2387970  48.3478650  66.3035260 116.5773450  49.6765790  60.7345730
 116.9189150  50.4208020  60.2389050 115.7486160  49.9896910  61.0970560
 109.1748490  45.3760880  72.3744130 108.8163430  46.0414730  72.9617470
 108.8803050  44.5444430  72.7456750 112.3761610  45.8345120  75.2583680
 112.0761750  45.9802300  74.3611500 113.1472850  45.2750410  75.1657070
 117.7190060  50.6314120  73.2538810 117.7334600  49.6995080  73.0357720
 117.0115160  50.7173880  73.8928580 115.5464140  49.7579320  63.5061650
 116.2335270  50.3048530  63.8869240 114.7596560  50.3020050  63.5411260
 107.6856540  45.3752140  58.9978730 108.5551390  45.6576940  59.2814650
 107.1946860  46.1888010  58.8827540 114.8491350  46.7625350  63.1187010
 115.3054130  47.5730600  63.3447200 114.4979560  46.4448490  63.9505500
 117.1523960  52.2731690  70.3479310 117.7966180  52.4791070  71.0252730
 117.5153400  51.5120090  69.8950160 110.7503130  37.1063000  63.5909530
 110.6217760  37.0980900  64.5394450 109.9265150  37.4446090  63.2400540
 108.0527790  54.5879520  59.5640360 108.4125430  55.1868860  58.9097630
 107.9120130  55.1339410  60.3375390 107.7497060  38.8654120  73.0516230
 107.0355580  39.0651040  73.6568840 108.1692100  38.0893690  73.4231030
 108.0369650  52.8534380  74.0382760 108.1460770  51.9129120  73.8978150
 107.3850210  53.1189130  73.3896490 116.0282240  51.1250270  75.4380880
 115.7079110  50.4059510  75.9826570 115.3540600  51.8005340  75.5116940
 114.0696410  51.9710720  60.3814030 114.0606510  52.7040410  59.7658540
 113.1494770  51.7242300  60.4740990 109.6703050  47.1925610  61.1260790
 109.0631000  47.9324510  61.1356090 110.1452400  47.2824970  60.2998990
 117.0556010  52.0338960  59.0439220 117.1567990  51.8302950  58.1141200
 116.1557750  51.7797240  59.2487000 114.5781900  42.5919320  63.0263120
 113.8698050  43.0605660  63.4676730 114.8626380  41.9341330  63.6608310
 116.2037830  44.0116020  71.0255650 116.7023080  44.4861840  71.6907500
 116.3460780  43.0879540  71.2325680 115.6974120  54.5525280  63.7386890
 115.9515620  54.5146670  62.8166260 114.7486600  54.4258610  63.7315140
 112.7816920  40.9004400  60.4013830 113.6307450  41.3374550  60.3354020
 112.4148190  41.2124660  61.2285890 111.6808340  47.1536760  58.8749360
 112.4471610  47.0418120  59.4374790 111.7583030  46.4574730  58.2226130
 110.3755100  44.5861830  59.5582250 110.4558690  43.6389340  59.6699650
 111.2674850  44.9168710  59.6642910 111.1769810  54.7357220  66.6616790
 111.9132290  54.1872680  66.9325360 111.5610730  55.6013230  66.5222780
 108.0615290  50.8030790  62.5358300 107.1355070  51.0451930  62.5263710
 108.5271720  51.6305050  62.4143050 114.2872120  53.9087530  58.4842360
 115.0800730  54.1976360  58.0324150 113.7676470  53.4779700  57.8054840
 107.9025900  46.4076750  74.7938420 108.4064920  45.8284030  75.3654650
 107.1633320  46.6916980  75.3314790 114.8049520  49.1290940  58.3484710
 114.7000160  48.5143290  59.0746090 114.6373740  48.6056830  57.5647720
 114.9563840  47.8147740  74.3273940 114.1909510  48.3832740  74.2428610
 115.1379800  47.5223950  73.4342170 113.7127370  47.1501890  60.8492000
 114.1343790  46.9841760  61.6923390 113.8378210  46.3402120  60.3547140
 111.8754790  43.1298440  73.6562980 111.3451250  42.6389390  73.0286320
 112.5442860  43.5582640  73.1220910 116.2255010  46.1739500  58.0969100
 116.7460670  45.4588520  57.7310250 116.8723410  46.8125370  58.3969610
 112.3627090  40.0960810  73.7360270 112.2683960  39.4781560  73.0111140
 111.7824480  40.8227100  73.5090180 115.1288530  38.6534050  70.7687660
 114.6805830  38.6758310  69.9233210 114.4953730  38.2553070  71.3657960
 115.5348080  47.5488380  71.3900100 115.9536190  48.3921110  71.2176340
 114.6156710  47.6860420  71.1606880 112.6086270  43.2235120  57.7950160
 112.4075330  42.3602480  58.1563500 112.4378320  43.1368480  56.8571760
 113.3855500  53.8541390  72.5057830 112.8476590  54.5787450  72.1866530
 113.6389460  53.3771730  71.7155170 114.6380750  41.8225910  74.0313760
 115.2280440  41.5141760  74.7191580 113.8200990  41.3505660  74.1873660
 111.4069070  40.3235740  57.7828040 111.7094970  40.3303170  56.8747190
 112.1463660  39.9733600  58.2795700 116.2417710  55.0892600  72.7644480
 116.1676410  55.9927740  73.0716850 115.3396550  54.7704500  72.7366550
 114.6254000  39.2670360  58.7684240 114.2776000  38.5894350  58.1886690
 114.8266770  38.8059870  59.5827630 116.7903040  54.2551110  60.3870840
 117.6853830  54.5936080  60.4089600 116.8220670  53.5330520  59.7595120
 110.4299200  49.6278160  58.6157840 110.8674070  50.1707830  59.2715420
 110.9146930  48.8025110  58.6254180 107.6445000  52.4167190  66.0678100
 107.9748010  51.5488250  65.8356740 108.0736000  52.6225710  66.8983060
 112.2406920  50.7476200  63.7280070 111.9402460  50.6241170  64.6283980
 112.1344410  49.8884790  63.3195800 108.1335210  53.2837780  68.8059730
 107.6966200  53.4638580  69.6383880 108.7012890  54.0412400  68.6641450
 107.9659640  45.7958010  65.1648610 107.3108480  45.5269650  64.5208310
 108.8037590  45.6862490  64.7150590 109.0035570  46.1810580  69.7051950
 109.3708610  46.0937980  70.5847970 108.4346390  45.4177130  69.6058810
 108.5551570  43.0919670  73.6110370 107.6607620  43.0586430  73.9504080
 109.0949120  43.2906460  74.3761620 107.1797720  43.0056940  61.1073940
 106.2761800  43.2687140  60.9325600 107.6638340  43.2768110  60.3273900
 109.7224930  42.0622480  59.0168320 110.4316630  41.6405700  58.5315600
 109.0064870  42.1297710  58.3851670 109.3699090  38.1161810  58.0570970
 110.0927220  38.6570750  58.3752190 109.6423610  37.8425230  57.1812510
 109.0591280  37.3668000  67.9593590 109.7067470  36.8165380  67.5188750
 109.4793120  37.6211150  68.7809400 108.8123280  37.5223670  70.7018910
 108.4638100  37.9787490  71.4677090 108.4810980  36.6280800  70.7841340
 110.4187650  50.6943270  74.8672100 110.3757280  50.3236180  75.7486560
 110.5498660  51.6320840  75.0073920 114.1193680  52.2502860  70.4681820
 113.8785040  52.5177420  69.5812340 115.0596320  52.4208590  70.5232680
 116.3248100  38.7135550  74.2238330 116.2636990  39.3057380  74.9733740
 117.2648480  38.6061510  74.0788590 109.4843920  37.0499870  73.9769680
 110.0326910  36.8687920  73.2135790 109.5499230  36.2593980  74.5125990
 110.2575680  53.6405520  71.9869880 109.6636000  53.5090220  72.7259920
 110.2499520  52.8043660  71.5211980 109.8887910  51.0063900  70.9377920
 109.1621970  50.3869190  70.8703870 109.9497060  51.4004510  70.0676000
 113.4933010  53.2208900  67.7227330 114.0098030  52.6096260  67.1975590
 114.1430390  53.7237680  68.2138340 116.2328510  54.1117390  68.5496310
 116.5206320  53.8571690  67.6729320 116.7451730  53.5594750  69.1401880
 117.4505520  37.8507590  69.1292820 116.6677310  38.3253090  69.4089580
 117.1568450  36.9462420  69.0206000 108.1717910  54.3238290  64.1474680
 108.0039950  53.6908970  64.8456570 107.3052420  54.5297690  63.7968870
 108.7945930  38.1555070  61.6506540 109.5525290  38.2683950  61.0770570
 108.3323100  38.9924270  61.6049970 115.3359740  40.2694340  64.6408850
 114.5234250  39.8951230  64.3004730 115.8401380  39.5139420  64.9430040
 109.7780610  53.0171520  61.5924820 109.2528230  53.3979550  60.8886780
 109.7025190  53.6422290  62.3134530 111.1671080  38.6819120  60.1908510
 111.6963840  37.8948920  60.0616460 111.7999400  39.3610310  60.4244040
 113.3608920  38.4194260  63.2453900 112.7311660  37.7181570  63.4124030
 112.8214060  39.1798390  63.0287060 116.3000870  55.0333490  75.9164510
 117.2268180  54.7977760  75.9600470 116.2851300  55.8605490  75.4350540
 113.4864480  37.6978240  75.6806390 113.2048750  38.2011840  74.9167210
 113.8684180  36.8999990  75.3148520 112.3773580  54.9653900  60.4674070
 113.1092400  54.6813180  59.9197960 112.6367250  54.7267180  61.3573450
 111.5388370  51.0818630  60.4720400 110.9097250  51.5503730  61.0206230
 111.6536200  50.2367850  60.9066590 117.1256130  46.9103310  48.5030870
 116.3498230  46.4303750  48.7929440 117.7769060  46.2308960  48.3287030
 111.1421960  47.2223120  49.3806630 110.3106840  46.9671830  49.7803140
 111.7502940  47.2933890  50.1164550 111.1223220  51.2563210  49.5764650
 111.4251260  50.3660950  49.3974870 111.8666810  51.8133430  49.3486900
 109.5513910  42.1825010  43.1649020 108.6630610  42.5240980  43.0628900
 109.8355100  41.9825330  42.2729850 116.5665120  49.5860500  48.5101030
 116.4973400  48.6450440  48.3490160 117.3284980  49.6761910  49.0823600
 108.7571790  40.1915020  50.8357650 108.5774630  39.2940770  51.1160410
 108.3551870  40.7386890  51.5104600 117.5970290  42.3930880  48.7369960
 117.9735110  41.5202760  48.6243630 117.4989800  42.7289580  47.8460400
 111.7275300  40.7656510  44.1987400 111.8342050  41.6660240  44.5056160
 110.8167660  40.7174480  43.9082050 109.3758460  42.6875520  49.4439990
 110.0568570  42.9513890  50.0627390 109.0606510  41.8476390  49.7778000
 113.5683030  43.7342880  48.5312580 114.0761250  44.2323850  49.1717600
 114.0996270  42.9578080  48.3551940 111.8519130  38.3741440  52.7976000
 111.8537570  38.8913830  51.9921900 111.0223440  37.8971620  52.7745930
 113.1021980  48.0136620  50.9749500 112.7691360  48.6405540  51.6170570
 113.2788660  48.5398500  50.1951170 111.5334460  40.0851400  50.8046450
 111.8751270  40.9293450  50.5100320 110.5950270  40.2335140  50.9211790
 112.3141080  49.9817420  52.7898680 112.9315080  50.6568500  52.5083130
 111.4534200  50.3905400  52.6986180 107.6073420  49.1717280  41.6705530
 107.2301400  49.6604380  40.9390430 107.8646490  49.8442560  42.3012060
 115.2162350  37.5733670  47.1291040 115.5237330  37.0180560  46.4126540
 114.2863050  37.7078130  46.9464030 117.6043110  45.6382500  43.8651160
 116.6772390  45.5719880  44.0939630 117.7567930  46.5762630  43.7506400
 117.5912190  41.9099500  40.8618320 116.6515860  42.0713460  40.9470780
 117.9095450  42.6285180  40.3154310 113.2099750  46.1647240  46.6470890
 112.8056750  45.4524490  46.1516790 113.2962870  45.8200480  47.5358930
 113.6781450  49.8514800  48.8110100 113.3809740  49.2460270  48.1317880
 114.6281270  49.8892110  48.6999460 111.9228370  42.9390450  50.4269930
 112.4742960  43.0485790  49.6523180 112.4371880  43.3128050  51.1425160
 112.7699880  49.5896490  55.4617900 111.8728410  49.8136460  55.7091300
 112.7952750  49.7131430  54.5129300 111.5971100  46.4609810  54.0375270
 111.4578870  47.3332610  54.4062670 110.7152460  46.1182620  53.8923210
 113.3951450  52.4031510  56.2460420 113.3666880  52.8074460  55.3788850
 113.2316420  51.4741870  56.0832020 109.9104380  45.0592220  44.1477540
 109.7901980  45.7854310  43.5358810 109.6005270  44.2895130  43.6705450
 108.7937380  49.9307550  46.3652360 108.3865460  50.0722140  45.5105960
 109.6850390  49.6467710  46.1623570 113.0659040  54.1453330  44.4775030
 112.8901520  53.2288870  44.2642830 112.2114780  54.5040620  44.7172830
 107.6049270  49.2721530  52.4940640 107.7680310  48.8026890  51.6760010
 108.0701720  48.7645090  53.1589480 112.3768040  38.4027290  47.5301210
 111.9336190  39.1836830  47.1985730 112.9353030  38.7257180  48.2372150
 116.6637850  41.2695810  53.1336530 116.2017220  41.4778830  53.9456470
 116.2615960  40.4555160  52.8307200 115.4926860  38.0237990  42.4107040
 114.8681040  38.0197860  43.1360350 115.4056980  37.1568950  42.0143010
 114.4143940  38.9474620  49.3890810 114.7116270  39.8537450  49.3082830
 114.9629500  38.4593400  48.7750380 112.1682260  43.5260860  45.2582460
 111.9423180  43.3098030  46.1629080 111.3874790  43.9589320  44.9128430
 114.6081470  44.4246440  55.9242730 114.5125070  43.4841170  55.7743130
 115.4513450  44.6461510  55.5290800 109.7392010  40.8360110  54.0776510
 109.3455400  41.6835320  54.2849290 109.0510410  40.1986480  54.2685150
 116.3137060  40.9195080  57.1473250 115.6235380  40.7267280  57.7819340
 117.0569360  41.2029720  57.6797550 107.0409060  38.7588570  48.1106590
 106.7522110  39.3291430  48.8231570 107.7854820  38.2793020  48.4737820
 107.2279290  42.7008690  39.3209310 107.1453960  43.6439450  39.4624300
 106.8762350  42.5583600  38.4421660 115.0277420  41.4347720  48.3879660
 115.0313480  40.9937670  47.5384200 115.9228540  41.7565050  48.4951480
 110.8779800  41.3174210  47.3473870 110.5379850  41.7949440  48.1040920
 110.1157120  40.8639330  46.9874970 115.0897570  42.4359800  41.3786420
 115.2110390  42.3946280  42.3272240 114.7046080  43.2983950  41.2233150
 114.1019070  44.7460940  40.7769720 113.5335970  44.2979190  40.1505630
 114.8108070  45.1053720  40.2434870 109.1788250  48.6472960  54.6536450
 108.7943040  48.0066630  55.2519410 109.4900440  49.3509080  55.2231180
 115.3285390  45.4949500  50.1345070 115.6955520  45.0208070  50.8806410
 115.1390450  46.3691070  50.4753410 108.1925880  40.2393190  46.2638540
 107.9072800  39.8748860  47.1017160 108.1304740  39.5073650  45.6501680
 113.1184760  44.5358140  52.4529280 112.8141830  45.4150120  52.6779640
 114.0731220  44.5957930  52.4886720 111.6466550  48.7419130  43.0496130
 110.8728810  48.2016750  42.8894850 112.3761180  48.2225740  42.7113890
 117.8664470  39.1322450  42.9851910 117.0529080  38.6335620  42.9097220
 117.6726420  39.9720700  42.5688260 117.7873330  47.8093550  54.7291520
 117.7210640  46.8889220  54.4749110 117.1578470  47.9068990  55.4436160
 111.6903950  48.4099510  46.6874940 112.2082620  47.6067770  46.6331830
 111.2387970  48.3478650  47.5291770 116.5773450  49.6765790  41.9602240
 116.9189150  50.4208020  41.4645560 115.7486160  49.9896910  42.3227070
 109.1748490  45.3760880  53.6000640 108.8163430  46.0414730  54.1873980
 108.8803050  44.5444430  53.9713260 112.3761610  45.8345120  56.4840190
 112.0761750  45.9802300  55.5868010 113.1472850  45.2750410  56.3913580
 117.7190060  50.6314120  54.4795320 117.7334600  49.6995080  54.2614230
 117.0115160  50.7173880  55.1185090 115.5464140  49.7579320  44.7318160
 116.2335270  50.3048530  45.1125750 114.7596560  50.3020050  44.7667770
 107.6856540  45.3752140  40.2235240 108.5551390  45.6576940  40.5071160
 107.1946860  46.1888010  40.1084050 114.8491350  46.7625350  44.3443520
 115.3054130  47.5730600  44.5703710 114.4979560  46.4448490  45.1762010
 117.1523960  52.2731690  51.5735820 117.7966180  52.4791070  52.2509240
 117.5153400  51.5120090  51.1206670 110.7503130  37.1063000  44.8166040
 110.6217760  37.0980900  45.7650960 109.9265150  37.4446090  44.4657050
 108.0527790  54.5879520  40.7896870 108.4125430  55.1868860  40.1354140
 107.9120130  55.1339410  41.5631900 107.7497060  38.8654120  54.2772740
 107.0355580  39.0651040  54.8825350 108.1692100  38.0893690  54.6487540
 108.0369650  52.8534380  55.2639270 108.1460770  51.9129120  55.1234660
 107.3850210  53.1189130  54.6153000 116.0282240  51.1250270  56.6637390
 115.7079110  50.4059510  57.2083080 115.3540600  51.8005340  56.7373450
 114.0696410  51.9710720  41.6070540 114.0606510  52.7040410  40.9915050
 113.1494770  51.7242300  41.6997500 109.6703050  47.1925610  42.3517300
 109.0631000  47.9324510  42.3612600 110.1452400  47.2824970  41.5255500
 117.0556010  52.0338960  40.2695730 117.1567990  51.8302950  39.3397710
 116.1557750  51.7797240  40.4743510 114.5781900  42.5919320  44.2519630
 113.8698050  43.0605660  44.6933240 114.8626380  41.9341330  44.8864820
 116.2037830  44.0116020  52.2512160 116.7023080  44.4861840  52.9164010
 116.3460780  43.0879540  52.4582190 115.6974120  54.5525280  44.9643400
 115.9515620  54.5146670  44.0422770 114.7486600  54.4258610  44.9571650
 112.7816920  40.9004400  41.6270340 113.6307450  41.3374550  41.5610530
 112.4148190  41.2124660  42.4542400 111.6808340  47.1536760  40.1005870
 112.4471610  47.0418120  40.6631300 111.7583030  46.4574730  39.4482640
 110.3755100  44.5861830  40.7838760 110.4558690  43.6389340  40.8956160
 111.2674850  44.9168710  40.8899420 111.1769810  54.7357220  47.8873300
 111.9132290  54.1872680  48.1581870 111.5610730  55.6013230  47.7479290
 108.0615290  50.8030790  43.7614810 107.1355070  51.0451930  43.7520220
 108.5271720  51.6305050  43.6399560 110.1828090  53.9203290  57.0758880
 110.9840820  54.2415340  57.4894280 109.6679910  53.5598870  57.7978790
 114.2872120  53.9087530  39.7098870 115.0800730  54.1976360  39.2580660
 113.7676470  53.4779700  39.0311350 107.9025900  46.4076750  56.0194930
 108.4064920  45.8284030  56.5911160 107.1633320  46.6916980  56.5571300
 114.8049520  49.1290940  39.5741220 114.7000160  48.5143290  40.3002600
 114.6373740  48.6056830  38.7904230 114.9563840  47.8147740  55.5530450
 114.1909510  48.3832740  55.4685120 115.1379800  47.5223950  54.6598680
 109.9348980  44.5506340  56.9145000 109.9754320  44.2520210  57.8230230
 110.7894480  44.9513950  56.7552520 113.7127370  47.1501890  42.0748510
 114.1343790  46.9841760  42.9179900 113.8378210  46.3402120  41.5803650
 111.8754790  43.1298440  54.8819490 111.3451250  42.6389390  54.2542830
 112.5442860  43.5582640  54.3477420 116.2255010  46.1739500  39.3225610
 116.7460670  45.4588520  38.9566760 116.8723410  46.8125370  39.6226120
 112.3627090  40.0960810  54.9616780 112.2683960  39.4781560  54.2367650
 111.7824480  40.8227100  54.7346690 115.1288530  38.6534050  51.9944170
 114.6805830  38.6758310  51.1489720 114.4953730  38.2553070  52.5914470
 115.5348080  47.5488380  52.6156610 115.9536190  48.3921110  52.4432850
 114.6156710  47.6860420  52.3863390 112.6086270  43.2235120  39.0206670
 112.4075330  42.3602480  39.3820010 112.4378320  43.1368480  38.0828270
 113.3855500  53.8541390  53.7314340 112.8476590  54.5787450  53.4123040
 113.6389460  53.3771730  52.9411680 114.6380750  41.8225910  55.2570270
 115.2280440  41.5141760  55.9448090 113.8200990  41.3505660  55.4130170
 111.4069070  40.3235740  39.0084550 111.7094970  40.3303170  38.1003700
 112.1463660  39.9733600  39.5052210 116.2417710  55.0892600  53.9900990
 116.1676410  55.9927740  54.2973360 115.3396550  54.7704500  53.9623060
 114.6254000  39.2670360  39.9940750 114.2776000  38.5894350  39.4143200
 114.8266770  38.8059870  40.8084140 116.7903040  54.2551110  41.6127350
 117.6853830  54.5936080  41.6346110 116.8220670  53.5330520  40.9851630
 110.4299200  49.6278160  39.8414350 110.8674070  50.1707830  40.4971930
 110.9146930  48.8025110  39.8510690 107.6445000  52.4167190  47.2934610
 107.9748010  51.5488250  47.0613250 108.0736000  52.6225710  48.1239570
 112.2406920  50.7476200  44.9536580 111.9402460  50.6241170  45.8540490
 112.1344410  49.8884790  44.5452310 108.1335210  53.2837780  50.0316240
 107.6966200  53.4638580  50.8640390 108.7012890  54.0412400  49.8897960
 109.0035570  46.1810580  50.9308460 109.3708610  46.0937980  51.8104480
 108.4346390  45.4177130  50.8315320 108.5551570  43.0919670  54.8366880
 107.6607620  43.0586430  55.1760590 109.0949120  43.2906460  55.6018130
 107.1797720  43.0056940  42.3330450 106.2761800  43.2687140  42.1582110
 107.6638340  43.2768110  41.5530410 109.7224930  42.0622480  40.2424830
 110.4316630  41.6405700  39.7572110 109.0064870  42.1297710  39.6108180
 109.3699090  38.1161810  39.2827480 110.0927220  38.6570750  39.6008700
 109.6423610  37.8425230  38.4069020 109.0591280  37.3668000  49.1850100
 109.7067470  36.8165380  48.7445260 109.4793120  37.6211150  50.0065910
 108.8123280  37.5223670  51.9275420 108.4638100  37.9787490  52.6933600
 108.4810980  36.6280800  52.0097850 110.4187650  50.6943270  56.0928610
 110.3757280  50.3236180  56.9743070 110.5498660  51.6320840  56.2330430
 114.1193680  52.2502860  51.6938330 113.8785040  52.5177420  50.8068850
 115.0596320  52.4208590  51.7489190 116.3248100  38.7135550  55.4494840
 116.2636990  39.3057380  56.1990250 117.2648480  38.6061510  55.3045100
 109.4843920  37.0499870  55.2026190 110.0326910  36.8687920  54.4392300
 109.5499230  36.2593980  55.7382500 110.2575680  53.6405520  53.2126390
 109.6636000  53.5090220  53.9516430 110.2499520  52.8043660  52.7468490
 109.8887910  51.0063900  52.1634430 109.1621970  50.3869190  52.0960380
 109.9497060  51.4004510  51.2932510 113.4933010  53.2208900  48.9483840
 114.0098030  52.6096260  48.4232100 114.1430390  53.7237680  49.4394850
 116.2328510  54.1117390  49.7752820 116.5206320  53.8571690  48.8985830
 116.7451730  53.5594750  50.3658390 117.4505520  37.8507590  50.3549330
 116.6677310  38.3253090  50.6346090 117.1568450  36.9462420  50.2462510
 108.1717910  54.3238290  45.3731190 108.0039950  53.6908970  46.0713080
 107.3052420  54.5297690  45.0225380 108.7945930  38.1555070  42.8763050
 109.5525290  38.2683950  42.3027080 108.3323100  38.9924270  42.8306480
 115.3359740  40.2694340  45.8665360 114.5234250  39.8951230  45.5261240
 115.8401380  39.5139420  46.1686550 109.7780610  53.0171520  42.8181330
 109.2528230  53.3979550  42.1143290 109.7025190  53.6422290  43.5391040
 111.1671080  38.6819120  41.4165020 111.6963840  37.8948920  41.2872970
 111.7999400  39.3610310  41.6500550 113.3608920  38.4194260  44.4710410
 112.7311660  37.7181570  44.6380540 112.8214060  39.1798390  44.2543570
 116.3000870  55.0333490  57.1421020 117.2268180  54.7977760  57.1856980
 116.2851300  55.8605490  56.6607050 113.4864480  37.6978240  56.9062900
 113.2048750  38.2011840  56.1423720 113.8684180  36.8999990  56.5405030
 112.3773580  54.9653900  41.6930580 113.1092400  54.6813180  41.1454470
 112.6367250  54.7267180  42.5829960 111.5388370  51.0818630  41.6976910
 110.9097250  51.5503730  42.2462740 111.6536200  50.2367850  42.1323100
 117.1256130  46.9103310  29.7287380 116.3498230  46.4303750  30.0185950
 117.7769060  46.2308960  29.5543540 111.1421960  47.2223120  30.6063140
 110.3106840  46.9671830  31.0059650 111.7502940  47.2933890  31.3421060
 111.1223220  51.2563210  30.8021160 111.4251260  50.3660950  30.6231380
 111.8666810  51.8133430  30.5743410 109.5513910  42.1825010  24.3905530
 108.6630610  42.5240980  24.2885410 109.8355100  41.9825330  23.4986360
 107.5146920  44.7830660  30.2745230 108.0863030  44.0152860  30.2748870
 107.5148460  45.0819420  29.3651840 116.5665120  49.5860500  29.7357540
 116.4973400  48.6450440  29.5746670 117.3284980  49.6761910  30.3080110
 108.7571790  40.1915020  32.0614160 108.5774630  39.2940770  32.3416920
 108.3551870  40.7386890  32.7361110 117.5970290  42.3930880  29.9626470
 117.9735110  41.5202760  29.8500140 117.4989800  42.7289580  29.0716910
 111.7275300  40.7656510  25.4243910 111.8342050  41.6660240  25.7312670
 110.8167660  40.7174480  25.1338560 109.3758460  42.6875520  30.6696500
 110.0568570  42.9513890  31.2883900 109.0606510  41.8476390  31.0034510
 113.5683030  43.7342880  29.7569090 114.0761250  44.2323850  30.3974110
 114.0996270  42.9578080  29.5808450 111.8519130  38.3741440  34.0232510
 111.8537570  38.8913830  33.2178410 111.0223440  37.8971620  34.0002440
 113.1021980  48.0136620  32.2006010 112.7691360  48.6405540  32.8427080
 113.2788660  48.5398500  31.4207680 111.5334460  40.0851400  32.0302960
 111.8751270  40.9293450  31.7356830 110.5950270  40.2335140  32.1468300
 112.3141080  49.9817420  34.0155190 112.9315080  50.6568500  33.7339640
 111.4534200  50.3905400  33.9242690 107.6073420  49.1717280  22.8962040
 107.2301400  49.6604380  22.1646940 107.8646490  49.8442560  23.5268570
 115.2162350  37.5733670  28.3547550 115.5237330  37.0180560  27.6383050
 114.2863050  37.7078130  28.1720540 117.6043110  45.6382500  25.0907670
 116.6772390  45.5719880  25.3196140 117.7567930  46.5762630  24.9762910
 117.5912190  41.9099500  22.0874830 116.6515860  42.0713460  22.1727290
 117.9095450  42.6285180  21.5410820 113.2099750  46.1647240  27.8727400
 112.8056750  45.4524490  27.3773300 113.2962870  45.8200480  28.7615440
 113.6781450  49.8514800  30.0366610 113.3809740  49.2460270  29.3574390
 114.6281270  49.8892110  29.9255970 111.9228370  42.9390450  31.6526440
 112.4742960  43.0485790  30.8779690 112.4371880  43.3128050  32.3681670
 112.7699880  49.5896490  36.6874410 111.8728410  49.8136460  36.9347810
 112.7952750  49.7131430  35.7385810 111.5971100  46.4609810  35.2631780
 111.4578870  47.3332610  35.6319180 110.7152460  46.1182620  35.1179720
 113.3951450  52.4031510  37.4716930 113.3666880  52.8074460  36.6045360
 113.2316420  51.4741870  37.3088530 109.9104380  45.0592220  25.3734050
 109.7901980  45.7854310  24.7615320 109.6005270  44.2895130  24.8961960
 107.5489750  48.2307360  31.1802690 107.6270170  48.3656130  30.2358410
 108.1631430  47.5223250  31.3730810 108.7937380  49.9307550  27.5908870
 108.3865460  50.0722140  26.7362470 109.6850390  49.6467710  27.3880080
 113.0659040  54.1453330  25.7031540 112.8901520  53.2288870  25.4899340
 112.2114780  54.5040620  25.9429340 107.6049270  49.2721530  33.7197150
 107.7680310  48.8026890  32.9016520 108.0701720  48.7645090  34.3845990
 112.3768040  38.4027290  28.7557720 111.9336190  39.1836830  28.4242240
 112.9353030  38.7257180  29.4628660 116.6637850  41.2695810  34.3593040
 116.2017220  41.4778830  35.1712980 116.2615960  40.4555160  34.0563710
 115.4926860  38.0237990  23.6363550 114.8681040  38.0197860  24.3616860
 115.4056980  37.1568950  23.2399520 114.4143940  38.9474620  30.6147320
 114.7116270  39.8537450  30.5339340 114.9629500  38.4593400  30.0006890
 112.1682260  43.5260860  26.4838970 111.9423180  43.3098030  27.3885590
 111.3874790  43.9589320  26.1384940 114.6081470  44.4246440  37.1499240
 114.5125070  43.4841170  36.9999640 115.4513450  44.6461510  36.7547310
 109.7392010  40.8360110  35.3033020 109.3455400  41.6835320  35.5105800
 109.0510410  40.1986480  35.4941660 116.3137060  40.9195080  38.3729760
 115.6235380  40.7267280  39.0075850 117.0569360  41.2029720  38.9054060
 107.0409060  38.7588570  29.3363100 106.7522110  39.3291430  30.0488080
 107.7854820  38.2793020  29.6994330 107.2279290  42.7008690  20.5465820
 107.1453960  43.6439450  20.6880810 106.8762350  42.5583600  19.6678170
 115.0277420  41.4347720  29.6136170 115.0313480  40.9937670  28.7640710
 115.9228540  41.7565050  29.7207990 110.8779800  41.3174210  28.5730380
 110.5379850  41.7949440  29.3297430 110.1157120  40.8639330  28.2131480
 115.0897570  42.4359800  22.6042930 115.2110390  42.3946280  23.5528750
 114.7046080  43.2983950  22.4489660 114.1019070  44.7460940  22.0026230
 113.5335970  44.2979190  21.3762140 114.8108070  45.1053720  21.4691380
 109.1788250  48.6472960  35.8792960 108.7943040  48.0066630  36.4775920
 109.4900440  49.3509080  36.4487690 115.3285390  45.4949500  31.3601580
 115.6955520  45.0208070  32.1062920 115.1390450  46.3691070  31.7009920
 108.1925880  40.2393190  27.4895050 107.9072800  39.8748860  28.3273670
 108.1304740  39.5073650  26.8758190 113.1184760  44.5358140  33.6785790
 112.8141830  45.4150120  33.9036150 114.0731220  44.5957930  33.7143230
 111.6466550  48.7419130  24.2752640 110.8728810  48.2016750  24.1151360
 112.3761180  48.2225740  23.9370400 117.8664470  39.1322450  24.2108420
 117.0529080  38.6335620  24.1353730 117.6726420  39.9720700  23.7944770
 117.7873330  47.8093550  35.9548030 117.7210640  46.8889220  35.7005620
 117.1578470  47.9068990  36.6692670 111.6903950  48.4099510  27.9131450
 112.2082620  47.6067770  27.8588340 111.2387970  48.3478650  28.7548280
 116.5773450  49.6765790  23.1858750 116.9189150  50.4208020  22.6902070
 115.7486160  49.9896910  23.5483580 109.1748490  45.3760880  34.8257150
 108.8163430  46.0414730  35.4130490 108.8803050  44.5444430  35.1969770
 112.3761610  45.8345120  37.7096700 112.0761750  45.9802300  36.8124520
 113.1472850  45.2750410  37.6170090 117.7190060  50.6314120  35.7051830
 117.7334600  49.6995080  35.4870740 117.0115160  50.7173880  36.3441600
 115.5464140  49.7579320  25.9574670 116.2335270  50.3048530  26.3382260
 114.7596560  50.3020050  25.9924280 107.6856540  45.3752140  21.4491750
 108.5551390  45.6576940  21.7327670 107.1946860  46.1888010  21.3340560
 114.8491350  46.7625350  25.5700030 115.3054130  47.5730600  25.7960220
 114.4979560  46.4448490  26.4018520 117.1523960  52.2731690  32.7992330
 117.7966180  52.4791070  33.4765750 117.5153400  51.5120090  32.3463180
 110.7503130  37.1063000  26.0422550 110.6217760  37.0980900  26.9907470
 109.9265150  37.4446090  25.6913560 108.0527790  54.5879520  22.0153380
 108.4125430  55.1868860  21.3610650 107.9120130  55.1339410  22.7888410
 107.7497060  38.8654120  35.5029250 107.0355580  39.0651040  36.1081860
 108.1692100  38.0893690  35.8744050 108.0369650  52.8534380  36.4895780
 108.1460770  51.9129120  36.3491170 107.3850210  53.1189130  35.8409510
 116.0282240  51.1250270  37.8893900 115.7079110  50.4059510  38.4339590
 115.3540600  51.8005340  37.9629960 114.0696410  51.9710720  22.8327050
 114.0606510  52.7040410  22.2171560 113.1494770  51.7242300  22.9254010
 109.6703050  47.1925610  23.5773810 109.0631000  47.9324510  23.5869110
 110.1452400  47.2824970  22.7512010 117.0556010  52.0338960  21.4952240
 117.1567990  51.8302950  20.5654220 116.1557750  51.7797240  21.7000020
 114.5781900  42.5919320  25.4776140 113.8698050  43.0605660  25.9189750
 114.8626380  41.9341330  26.1121330 116.2037830  44.0116020  33.4768670
 116.7023080  44.4861840  34.1420520 116.3460780  43.0879540  33.6838700
 115.6974120  54.5525280  26.1899910 115.9515620  54.5146670  25.2679280
 114.7486600  54.4258610  26.1828160 112.7816920  40.9004400  22.8526850
 113.6307450  41.3374550  22.7867040 112.4148190  41.2124660  23.6798910
 111.6808340  47.1536760  21.3262380 112.4471610  47.0418120  21.8887810
 111.7583030  46.4574730  20.6739150 110.3755100  44.5861830  22.0095270
 110.4558690  43.6389340  22.1212670 111.2674850  44.9168710  22.1155930
 111.1769810  54.7357220  29.1129810 111.9132290  54.1872680  29.3838380
 111.5610730  55.6013230  28.9735800 108.0615290  50.8030790  24.9871320
 107.1355070  51.0451930  24.9776730 108.5271720  51.6305050  24.8656070
 110.1828090  53.9203290  38.3015390 110.9840820  54.2415340  38.7150790
 109.6679910  53.5598870  39.0235300 114.2872120  53.9087530  20.9355380
 115.0800730  54.1976360  20.4837170 113.7676470  53.4779700  20.2567860
 107.9025900  46.4076750  37.2451440 108.4064920  45.8284030  37.8167670
 107.1633320  46.6916980  37.7827810 114.8049520  49.1290940  20.7997730
 114.7000160  48.5143290  21.5259110 114.6373740  48.6056830  20.0160740
 114.9563840  47.8147740  36.7786960 114.1909510  48.3832740  36.6941630
 115.1379800  47.5223950  35.8855190 109.9348980  44.5506340  38.1401510
 109.9754320  44.2520210  39.0486740 110.7894480  44.9513950  37.9809030
 113.7127370  47.1501890  23.3005020 114.1343790  46.9841760  24.1436410
 113.8378210  46.3402120  22.8060160 111.8754790  43.1298440  36.1076000
 111.3451250  42.6389390  35.4799340 112.5442860  43.5582640  35.5733930
 116.2255010  46.1739500  20.5482120 116.7460670  45.4588520  20.1823270
 116.8723410  46.8125370  20.8482630 112.3627090  40.0960810  36.1873290
 112.2683960  39.4781560  35.4624160 111.7824480  40.8227100  35.9603200
 115.1288530  38.6534050  33.2200680 114.6805830  38.6758310  32.3746230
 114.4953730  38.2553070  33.8170980 115.5348080  47.5488380  33.8413120
 115.9536190  48.3921110  33.6689360 114.6156710  47.6860420  33.6119900
 112.6086270  43.2235120  20.2463180 112.4075330  42.3602480  20.6076520
 112.4378320  43.1368480  19.3084780 113.3855500  53.8541390  34.9570850
 112.8476590  54.5787450  34.6379550 113.6389460  53.3771730  34.1668190
 114.6380750  41.8225910  36.4826780 115.2280440  41.5141760  37.1704600
 113.8200990  41.3505660  36.6386680 111.4069070  40.3235740  20.2341060
 111.7094970  40.3303170  19.3260210 112.1463660  39.9733600  20.7308720
 116.2417710  55.0892600  35.2157500 116.1676410  55.9927740  35.5229870
 115.3396550  54.7704500  35.1879570 114.6254000  39.2670360  21.2197260
 114.2776000  38.5894350  20.6399710 114.8266770  38.8059870  22.0340650
 116.7903040  54.2551110  22.8383860 117.6853830  54.5936080  22.8602620
 116.8220670  53.5330520  22.2108140 110.4299200  49.6278160  21.0670860
 110.8674070  50.1707830  21.7228440 110.9146930  48.8025110  21.0767200
 107.6445000  52.4167190  28.5191120 107.9748010  51.5488250  28.2869760
 108.0736000  52.6225710  29.3496080 112.2406920  50.7476200  26.1793090
 111.9402460  50.6241170  27.0797000 112.1344410  49.8884790  25.7708820
 108.1335210  53.2837780  31.2572750 107.6966200  53.4638580  32.0896900
 108.7012890  54.0412400  31.1154470 107.9659640  45.7958010  27.6161630
 107.3108480  45.5269650  26.9721330 108.8037590  45.6862490  27.1663610
 109.0035570  46.1810580  32.1564970 109.3708610  46.0937980  33.0360990
 108.4346390  45.4177130  32.0571830 108.5551570  43.0919670  36.0623390
 107.6607620  43.0586430  36.4017100 109.0949120  43.2906460  36.8274640
 107.1797720  43.0056940  23.5586960 106.2761800  43.2687140  23.3838620
 107.6638340  43.2768110  22.7786920 109.7224930  42.0622480  21.4681340
 110.4316630  41.6405700  20.9828620 109.0064870  42.1297710  20.8364690
 109.3699090  38.1161810  20.5083990 110.0927220  38.6570750  20.8265210
 109.6423610  37.8425230  19.6325530 109.0591280  37.3668000  30.4106610
 109.7067470  36.8165380  29.9701770 109.4793120  37.6211150  31.2322420
 108.8123280  37.5223670  33.1531930 108.4638100  37.9787490  33.9190110
 108.4810980  36.6280800  33.2354360 110.4187650  50.6943270  37.3185120
 110.3757280  50.3236180  38.1999580 110.5498660  51.6320840  37.4586940
 114.1193680  52.2502860  32.9194840 113.8785040  52.5177420  32.0325360
 115.0596320  52.4208590  32.9745700 116.3248100  38.7135550  36.6751350
 116.2636990  39.3057380  37.4246760 117.2648480  38.6061510  36.5301610
 109.4843920  37.0499870  36.4282700 110.0326910  36.8687920  35.6648810
 109.5499230  36.2593980  36.9639010 110.2575680  53.6405520  34.4382900
 109.6636000  53.5090220  35.1772940 110.2499520  52.8043660  33.9725000
 109.8887910  51.0063900  33.3890940 109.1621970  50.3869190  33.3216890
 109.9497060  51.4004510  32.5189020 113.4933010  53.2208900  30.1740350
 114.0098030  52.6096260  29.6488610 114.1430390  53.7237680  30.6651360
 116.2328510  54.1117390  31.0009330 116.5206320  53.8571690  30.1242340
 116.7451730  53.5594750  31.5914900 117.4505520  37.8507590  31.5805840
 116.6677310  38.3253090  31.8602600 117.1568450  36.9462420  31.4719020
 108.1717910  54.3238290  26.5987700 108.0039950  53.6908970  27.2969590
 107.3052420  54.5297690  26.2481890 108.7945930  38.1555070  24.1019560
 109.5525290  38.2683950  23.5283590 108.3323100  38.9924270  24.0562990
 115.3359740  40.2694340  27.0921870 114.5234250  39.8951230  26.7517750
 115.8401380  39.5139420  27.3943060 109.7780610  53.0171520  24.0437840
 109.2528230  53.3979550  23.3399800 109.7025190  53.6422290  24.7647550
 111.1671080  38.6819120  22.6421530 111.6963840  37.8948920  22.5129480
 111.7999400  39.3610310  22.8757060 113.3608920  38.4194260  25.6966920
 112.7311660  37.7181570  25.8637050 112.8214060  39.1798390  25.4800080
 116.3000870  55.0333490  38.3677530 117.2268180  54.7977760  38.4113490
 116.2851300  55.8605490  37.8863560 113.4864480  37.6978240  38.1319410
 113.2048750  38.2011840  37.3680230 113.8684180  36.8999990  37.7661540
 112.3773580  54.9653900  22.9187090 113.1092400  54.6813180  22.3710980
 112.6367250  54.7267180  23.8086470 111.5388370  51.0818630  22.9233420
 110.9097250  51.5503730  23.4719250 111.6536200  50.2367850  23.3579610
 117.1256130  46.9103310  10.9543890 116.3498230  46.4303750  11.2442460
 117.7769060  46.2308960  10.7800050 111.1421960  47.2223120  11.8319650
 110.3106840  46.9671830  12.2316160 111.7502940  47.2933890  12.5677570
 111.1223220  51.2563210  12.0277670 111.4251260  50.3660950  11.8487890
 111.8666810  51.8133430  11.7999920 109.5513910  42.1825010   5.6162040
 108.6630610  42.5240980   5.5141920 109.8355100  41.9825330   4.7242870
 107.5146920  44.7830660  11.5001740 108.0863030  44.0152860  11.5005380
 107.5148460  45.0819420  10.5908350 116.5665120  49.5860500  10.9614050
 116.4973400  48.6450440  10.8003180 117.3284980  49.6761910  11.5336620
 108.7571790  40.1915020  13.2870670 108.5774630  39.2940770  13.5673430
 108.3551870  40.7386890  13.9617620 117.5970290  42.3930880  11.1882980
 117.9735110  41.5202760  11.0756650 117.4989800  42.7289580  10.2973420
 111.7275300  40.7656510   6.6500420 111.8342050  41.6660240   6.9569180
 110.8167660  40.7174480   6.3595070 109.3758460  42.6875520  11.8953010
 110.0568570  42.9513890  12.5140410 109.0606510  41.8476390  12.2291020
 113.5683030  43.7342880  10.9825600 114.0761250  44.2323850  11.6230620
 114.0996270  42.9578080  10.8064960 111.8519130  38.3741440  15.2489020
 111.8537570  38.8913830  14.4434920 111.0223440  37.8971620  15.2258950
 113.1021980  48.0136620  13.4262520 112.7691360  48.6405540  14.0683590
 113.2788660  48.5398500  12.6464190 111.5334460  40.0851400  13.2559470
 111.8751270  40.9293450  12.9613340 110.5950270  40.2335140  13.3724810
 112.3141080  49.9817420  15.2411700 112.9315080  50.6568500  14.9596150
 111.4534200  50.3905400  15.1499200 107.6073420  49.1717280   4.1218550
 107.2301400  49.6604380   3.3903450 107.8646490  49.8442560   4.7525080
 115.2162350  37.5733670   9.5804060 115.5237330  37.0180560   8.8639560
 114.2863050  37.7078130   9.3977050 117.6043110  45.6382500   6.3164180
 116.6772390  45.5719880   6.5452650 117.7567930  46.5762630   6.2019420
 117.5912190  41.9099500   3.3131340 116.6515860  42.0713460   3.3983800
 117.9095450  42.6285180   2.7667330 113.2099750  46.1647240   9.0983910
 112.8056750  45.4524490   8.6029810 113.2962870  45.8200480   9.9871950
 113.6781450  49.8514800  11.2623120 113.3809740  49.2460270  10.5830900
 114.6281270  49.8892110  11.1512480 111.9228370  42.9390450  12.8782950
 112.4742960  43.0485790  12.1036200 112.4371880  43.3128050  13.5938180
 112.7699880  49.5896490  17.9130920 111.8728410  49.8136460  18.1604320
 112.7952750  49.7131430  16.9642320 111.5971100  46.4609810  16.4888290
 111.4578870  47.3332610  16.8575690 110.7152460  46.1182620  16.3436230
 113.3951450  52.4031510  18.6973440 113.3666880  52.8074460  17.8301870
 113.2316420  51.4741870  18.5345040 109.9104380  45.0592220   6.5990560
 109.7901980  45.7854310   5.9871830 109.6005270  44.2895130   6.1218470
 107.5489750  48.2307360  12.4059200 107.6270170  48.3656130  11.4614920
 108.1631430  47.5223250  12.5987320 108.7937380  49.9307550   8.8165380
 108.3865460  50.0722140   7.9618980 109.6850390  49.6467710   8.6136590
 113.0659040  54.1453330   6.9288050 112.8901520  53.2288870   6.7155850
 112.2114780  54.5040620   7.1685850 107.6049270  49.2721530  14.9453660
 107.7680310  48.8026890  14.1273030 108.0701720  48.7645090  15.6102500
 112.3768040  38.4027290   9.9814230 111.9336190  39.1836830   9.6498750
 112.9353030  38.7257180  10.6885170 116.6637850  41.2695810  15.5849550
 116.2017220  41.4778830  16.3969490 116.2615960  40.4555160  15.2820220
 115.4926860  38.0237990   4.8620060 114.8681040  38.0197860   5.5873370
 115.4056980  37.1568950   4.4656030 114.4143940  38.9474620  11.8403830
 114.7116270  39.8537450  11.7595850 114.9629500  38.4593400  11.2263400
 112.1682260  43.5260860   7.7095480 111.9423180  43.3098030   8.6142100
 111.3874790  43.9589320   7.3641450 114.6081470  44.4246440  18.3755750
 114.5125070  43.4841170  18.2256150 115.4513450  44.6461510  17.9803820
 109.7392010  40.8360110  16.5289530 109.3455400  41.6835320  16.7362310
 109.0510410  40.1986480  16.7198170 116.3137060  40.9195080  19.5986270
 115.6235380  40.7267280  20.2332360 117.0569360  41.2029720  20.1310570
 107.0409060  38.7588570  10.5619610 106.7522110  39.3291430  11.2744590
 107.7854820  38.2793020  10.9250840 115.0277420  41.4347720  10.8392680
 115.0313480  40.9937670   9.9897220 115.9228540  41.7565050  10.9464500
 110.8779800  41.3174210   9.7986890 110.5379850  41.7949440  10.5553940
 110.1157120  40.8639330   9.4387990 115.0897570  42.4359800   3.8299440
 115.2110390  42.3946280   4.7785260 114.7046080  43.2983950   3.6746170
 114.1019070  44.7460940   3.2282740 113.5335970  44.2979190   2.6018650
 114.8108070  45.1053720   2.6947890 109.1788250  48.6472960  17.1049470
 108.7943040  48.0066630  17.7032430 109.4900440  49.3509080  17.6744200
 115.3285390  45.4949500  12.5858090 115.6955520  45.0208070  13.3319430
 115.1390450  46.3691070  12.9266430 108.1925880  40.2393190   8.7151560
 107.9072800  39.8748860   9.5530180 108.1304740  39.5073650   8.1014700
 113.1184760  44.5358140  14.9042300 112.8141830  45.4150120  15.1292660
 114.0731220  44.5957930  14.9399740 111.6466550  48.7419130   5.5009150
 110.8728810  48.2016750   5.3407870 112.3761180  48.2225740   5.1626910
 117.8664470  39.1322450   5.4364930 117.0529080  38.6335620   5.3610240
 117.6726420  39.9720700   5.0201280 117.7873330  47.8093550  17.1804540
 117.7210640  46.8889220  16.9262130 117.1578470  47.9068990  17.8949180
 111.6903950  48.4099510   9.1387960 112.2082620  47.6067770   9.0844850
 111.2387970  48.3478650   9.9804790 116.5773450  49.6765790   4.4115260
 116.9189150  50.4208020   3.9158580 115.7486160  49.9896910   4.7740090
 109.1748490  45.3760880  16.0513660 108.8163430  46.0414730  16.6387000
 108.8803050  44.5444430  16.4226280 112.3761610  45.8345120  18.9353210
 112.0761750  45.9802300  18.0381030 113.1472850  45.2750410  18.8426600
 117.7190060  50.6314120  16.9308340 117.7334600  49.6995080  16.7127250
 117.0115160  50.7173880  17.5698110 115.5464140  49.7579320   7.1831180
 116.2335270  50.3048530   7.5638770 114.7596560  50.3020050   7.2180790
 107.6856540  45.3752140   2.6748260 108.5551390  45.6576940   2.9584180
 107.1946860  46.1888010   2.5597070 114.8491350  46.7625350   6.7956540
 115.3054130  47.5730600   7.0216730 114.4979560  46.4448490   7.6275030
 117.1523960  52.2731690  14.0248840 117.7966180  52.4791070  14.7022260
 117.5153400  51.5120090  13.5719690 110.7503130  37.1063000   7.2679060
 110.6217760  37.0980900   8.2163980 109.9265150  37.4446090   6.9170070
 108.0527790  54.5879520   3.2409890 108.4125430  55.1868860   2.5867160
 107.9120130  55.1339410   4.0144920 107.7497060  38.8654120  16.7285760
 107.0355580  39.0651040  17.3338370 108.1692100  38.0893690  17.1000560
 108.0369650  52.8534380  17.7152290 108.1460770  51.9129120  17.5747680
 107.3850210  53.1189130  17.0666020 116.0282240  51.1250270  19.1150410
 115.7079110  50.4059510  19.6596100 115.3540600  51.8005340  19.1886470
 114.0696410  51.9710720   4.0583560 114.0606510  52.7040410   3.4428070
 113.1494770  51.7242300   4.1510520 109.6703050  47.1925610   4.8030320
 109.0631000  47.9324510   4.8125620 110.1452400  47.2824970   3.9768520
 117.0556010  52.0338960   2.7208750 117.1567990  51.8302950   1.7910730
 116.1557750  51.7797240   2.9256530 114.5781900  42.5919320   6.7032650
 113.8698050  43.0605660   7.1446260 114.8626380  41.9341330   7.3377840
 116.2037830  44.0116020  14.7025180 116.7023080  44.4861840  15.3677030
 116.3460780  43.0879540  14.9095210 115.6974120  54.5525280   7.4156420
 115.9515620  54.5146670   6.4935790 114.7486600  54.4258610   7.4084670
 112.7816920  40.9004400   4.0783360 113.6307450  41.3374550   4.0123550
 112.4148190  41.2124660   4.9055420 111.6808340  47.1536760   2.5518890
 112.4471610  47.0418120   3.1144320 111.7583030  46.4574730   1.8995660
 110.3755100  44.5861830   3.2351780 110.4558690  43.6389340   3.3469180
 111.2674850  44.9168710   3.3412440 111.1769810  54.7357220  10.3386320
 111.9132290  54.1872680  10.6094890 111.5610730  55.6013230  10.1992310
 108.0615290  50.8030790   6.2127830 107.1355070  51.0451930   6.2033240
 108.5271720  51.6305050   6.0912580 110.1828090  53.9203290  19.5271900
 110.9840820  54.2415340  19.9407300 109.6679910  53.5598870  20.2491810
 114.2872120  53.9087530   2.1611890 115.0800730  54.1976360   1.7093680
 113.7676470  53.4779700   1.4824370 107.9025900  46.4076750  18.4707950
 108.4064920  45.8284030  19.0424180 107.1633320  46.6916980  19.0084320
 114.9563840  47.8147740  18.0043470 114.1909510  48.3832740  17.9198140
 115.1379800  47.5223950  17.1111700 109.9348980  44.5506340  19.3658020
 109.9754320  44.2520210  20.2743250 110.7894480  44.9513950  19.2065540
 113.7127370  47.1501890   4.5261530 114.1343790  46.9841760   5.3692920
 113.8378210  46.3402120   4.0316670 111.8754790  43.1298440  17.3332510
 111.3451250  42.6389390  16.7055850 112.5442860  43.5582640  16.7990440
 112.3627090  40.0960810  17.4129800 112.2683960  39.4781560  16.6880670
 111.7824480  40.8227100  17.1859710 115.1288530  38.6534050  14.4457190
 114.6805830  38.6758310  13.6002740 114.4953730  38.2553070  15.0427490
 115.5348080  47.5488380  15.0669630 115.9536190  48.3921110  14.8945870
 114.6156710  47.6860420  14.8376410 113.3855500  53.8541390  16.1827360
 112.8476590  54.5787450  15.8636060 113.6389460  53.3771730  15.3924700
 114.6380750  41.8225910  17.7083290 115.2280440  41.5141760  18.3961110
 113.8200990  41.3505660  17.8643190 116.2417710  55.0892600  16.4414010
 116.1676410  55.9927740  16.7486380 115.3396550  54.7704500  16.4136080
 114.6254000  39.2670360   2.4453770 114.2776000  38.5894350   1.8656220
 114.8266770  38.8059870   3.2597160 116.7903040  54.2551110   4.0640370
 117.6853830  54.5936080   4.0859130 116.8220670  53.5330520   3.4364650
 110.4299200  49.6278160   2.2927370 110.8674070  50.1707830   2.9484950
 110.9146930  48.8025110   2.3023710 107.6445000  52.4167190   9.7447630
 107.9748010  51.5488250   9.5126270 108.0736000  52.6225710  10.5752590
 112.2406920  50.7476200   7.4049600 111.9402460  50.6241170   8.3053510
 112.1344410  49.8884790   6.9965330 108.1335210  53.2837780  12.4829260
 107.6966200  53.4638580  13.3153410 108.7012890  54.0412400  12.3410980
 107.9659640  45.7958010   8.8418140 107.3108480  45.5269650   8.1977840
 108.8037590  45.6862490   8.3920120 109.0035570  46.1810580  13.3821480
 109.3708610  46.0937980  14.2617500 108.4346390  45.4177130  13.2828340
 108.5551570  43.0919670  17.2879900 107.6607620  43.0586430  17.6273610
 109.0949120  43.2906460  18.0531150 107.1797720  43.0056940   4.7843470
 106.2761800  43.2687140   4.6095130 107.6638340  43.2768110   4.0043430
 109.7224930  42.0622480   2.6937850 110.4316630  41.6405700   2.2085130
 109.0064870  42.1297710   2.0621200 109.0591280  37.3668000  11.6363120
 109.7067470  36.8165380  11.1958280 109.4793120  37.6211150  12.4578930
 108.8123280  37.5223670  14.3788440 108.4638100  37.9787490  15.1446620
 108.4810980  36.6280800  14.4610870 110.4187650  50.6943270  18.5441630
 110.3757280  50.3236180  19.4256090 110.5498660  51.6320840  18.6843450
 114.1193680  52.2502860  14.1451350 113.8785040  52.5177420  13.2581870
 115.0596320  52.4208590  14.2002210 116.3248100  38.7135550  17.9007860
 116.2636990  39.3057380  18.6503270 117.2648480  38.6061510  17.7558120
 109.4843920  37.0499870  17.6539210 110.0326910  36.8687920  16.8905320
 109.5499230  36.2593980  18.1895520 110.2575680  53.6405520  15.6639410
 109.6636000  53.5090220  16.4029450 110.2499520  52.8043660  15.1981510
 109.8887910  51.0063900  14.6147450 109.1621970  50.3869190  14.5473400
 109.9497060  51.4004510  13.7445530 113.4933010  53.2208900  11.3996860
 114.0098030  52.6096260  10.8745120 114.1430390  53.7237680  11.8907870
 116.2328510  54.1117390  12.2265840 116.5206320  53.8571690  11.3498850
 116.7451730  53.5594750  12.8171410 117.4505520  37.8507590  12.8062350
 116.6677310  38.3253090  13.0859110 117.1568450  36.9462420  12.6975530
 108.1717910  54.3238290   7.8244210 108.0039950  53.6908970   8.5226100
 107.3052420  54.5297690   7.4738400 108.7945930  38.1555070   5.3276070
 109.5525290  38.2683950   4.7540100 108.3323100  38.9924270   5.2819500
 115.3359740  40.2694340   8.3178380 114.5234250  39.8951230   7.9774260
 115.8401380  39.5139420   8.6199570 109.7780610  53.0171520   5.2694350
 109.2528230  53.3979550   4.5656310 109.7025190  53.6422290   5.9904060
 111.1671080  38.6819120   3.8678040 111.6963840  37.8948920   3.7385990
 111.7999400  39.3610310   4.1013570 113.3608920  38.4194260   6.9223430
 112.7311660  37.7181570   7.0893560 112.8214060  39.1798390   6.7056590
 116.3000870  55.0333490  19.5934040 117.2268180  54.7977760  19.6370000
 116.2851300  55.8605490  19.1120070 113.4864480  37.6978240  19.3575920
 113.2048750  38.2011840  18.5936740 113.8684180  36.8999990  18.9918050
 112.3773580  54.9653900   4.1443600 113.1092400  54.6813180   3.5967490
 112.6367250  54.7267180   5.0342980 111.5388370  51.0818630   4.1489930
 110.9097250  51.5503730   4.6975760 111.6536200  50.2367850   4.5836120
 117.1256130  28.1359820  67.2774360 116.3498230  27.6560260  67.5672930
 117.7769060  27.4565470  67.1030520 111.1421960  28.4479630  68.1550120
 110.3106840  28.1928340  68.5546630 111.7502940  28.5190400  68.8908040
 111.1223220  32.4819720  68.3508140 111.4251260  31.5917460  68.1718360
 111.8666810  33.0389940  68.1230390 109.5513910  23.4081520  61.9392510
 108.6630610  23.7497490  61.8372390 109.8355100  23.2081840  61.0473340
 107.5146920  26.0087170  67.8232210 108.0863030  25.2409370  67.8235850
 107.5148460  26.3075930  66.9138820 116.5665120  30.8117010  67.2844520
 116.4973400  29.8706950  67.1233650 117.3284980  30.9018420  67.8567090
 108.7571790  21.4171530  69.6101140 108.5774630  20.5197280  69.8903900
 108.3551870  21.9643400  70.2848090 117.5970290  23.6187390  67.5113450
 117.9735110  22.7459270  67.3987120 117.4989800  23.9546090  66.6203890
 111.7275300  21.9913020  62.9730890 111.8342050  22.8916750  63.2799650
 110.8167660  21.9430990  62.6825540 109.3758460  23.9132030  68.2183480
 110.0568570  24.1770400  68.8370880 109.0606510  23.0732900  68.5521490
 113.5683030  24.9599390  67.3056070 114.0761250  25.4580360  67.9461090
 114.0996270  24.1834590  67.1295430 111.8519130  19.5997950  71.5719490
 111.8537570  20.1170340  70.7665390 111.0223440  19.1228130  71.5489420
 113.1021980  29.2393130  69.7492990 112.7691360  29.8662050  70.3914060
 113.2788660  29.7655010  68.9694660 111.5334460  21.3107910  69.5789940
 111.8751270  22.1549960  69.2843810 110.5950270  21.4591650  69.6955280
 112.3141080  31.2073930  71.5642170 112.9315080  31.8825010  71.2826620
 111.4534200  31.6161910  71.4729670 107.6073420  30.3973790  60.4449020
 107.2301400  30.8860890  59.7133920 107.8646490  31.0699070  61.0755550
 115.2162350  18.7990180  65.9034530 115.5237330  18.2437070  65.1870030
 114.2863050  18.9334640  65.7207520 117.6043110  26.8639010  62.6394650
 116.6772390  26.7976390  62.8683120 117.7567930  27.8019140  62.5249890
 117.5912190  23.1356010  59.6361810 116.6515860  23.2969970  59.7214270
 117.9095450  23.8541690  59.0897800 113.2099750  27.3903750  65.4214380
 112.8056750  26.6781000  64.9260280 113.2962870  27.0456990  66.3102420
 113.6781450  31.0771310  67.5853590 113.3809740  30.4716780  66.9061370
 114.6281270  31.1148620  67.4742950 111.9228370  24.1646960  69.2013420
 112.4742960  24.2742300  68.4266670 112.4371880  24.5384560  69.9168650
 112.7699880  30.8153000  74.2361390 111.8728410  31.0392970  74.4834790
 112.7952750  30.9387940  73.2872790 111.5971100  27.6866320  72.8118760
 111.4578870  28.5589120  73.1806160 110.7152460  27.3439130  72.6666700
 113.3951450  33.6288020  75.0203910 113.3666880  34.0330970  74.1532340
 113.2316420  32.6998380  74.8575510 109.9104380  26.2848730  62.9221030
 109.7901980  27.0110820  62.3102300 109.6005270  25.5151640  62.4448940
 107.5489750  29.4563870  68.7289670 107.6270170  29.5912640  67.7845390
 108.1631430  28.7479760  68.9217790 108.7937380  31.1564060  65.1395850
 108.3865460  31.2978650  64.2849450 109.6850390  30.8724220  64.9367060
 113.0659040  35.3709840  63.2518520 112.8901520  34.4545380  63.0386320
 112.2114780  35.7297130  63.4916320 107.6049270  30.4978040  71.2684130
 107.7680310  30.0283400  70.4503500 108.0701720  29.9901600  71.9332970
 112.3768040  19.6283800  66.3044700 111.9336190  20.4093340  65.9729220
 112.9353030  19.9513690  67.0115640 116.6637850  22.4952320  71.9080020
 116.2017220  22.7035340  72.7199960 116.2615960  21.6811670  71.6050690
 115.4926860  19.2494500  61.1850530 114.8681040  19.2454370  61.9103840
 115.4056980  18.3825460  60.7886500 114.4143940  20.1731130  68.1634300
 114.7116270  21.0793960  68.0826320 114.9629500  19.6849910  67.5493870
 112.1682260  24.7517370  64.0325950 111.9423180  24.5354540  64.9372570
 111.3874790  25.1845830  63.6871920 114.6081470  25.6502950  74.6986220
 114.5125070  24.7097680  74.5486620 115.4513450  25.8718020  74.3034290
 109.7392010  22.0616620  72.8520000 109.3455400  22.9091830  73.0592780
 109.0510410  21.4242990  73.0428640 107.0409060  19.9845080  66.8850080
 106.7522110  20.5547940  67.5975060 107.7854820  19.5049530  67.2481310
 107.2279290  23.9265200  58.0952800 107.1453960  24.8695960  58.2367790
 106.8762350  23.7840110  57.2165150 115.0277420  22.6604230  67.1623150
 115.0313480  22.2194180  66.3127690 115.9228540  22.9821560  67.2694970
 110.8779800  22.5430720  66.1217360 110.5379850  23.0205950  66.8784410
 110.1157120  22.0895840  65.7618460 115.0897570  23.6616310  60.1529910
 115.2110390  23.6202790  61.1015730 114.7046080  24.5240460  59.9976640
 114.1019070  25.9717450  59.5513210 113.5335970  25.5235700  58.9249120
 114.8108070  26.3310230  59.0178360 109.1788250  29.8729470  73.4279940
 108.7943040  29.2323140  74.0262900 109.4900440  30.5765590  73.9974670
 115.3285390  26.7206010  68.9088560 115.6955520  26.2464580  69.6549900
 115.1390450  27.5947580  69.2496900 108.1925880  21.4649700  65.0382030
 107.9072800  21.1005370  65.8760650 108.1304740  20.7330160  64.4245170
 113.1184760  25.7614650  71.2272770 112.8141830  26.6406630  71.4523130
 114.0731220  25.8214440  71.2630210 111.6466550  29.9675640  61.8239620
 110.8728810  29.4273260  61.6638340 112.3761180  29.4482250  61.4857380
 117.8664470  20.3578960  61.7595400 117.0529080  19.8592130  61.6840710
 117.6726420  21.1977210  61.3431750 117.7873330  29.0350060  73.5035010
 117.7210640  28.1145730  73.2492600 117.1578470  29.1325500  74.2179650
 111.6903950  29.6356020  65.4618430 112.2082620  28.8324280  65.4075320
 111.2387970  29.5735160  66.3035260 116.5773450  30.9022300  60.7345730
 116.9189150  31.6464530  60.2389050 115.7486160  31.2153420  61.0970560
 109.1748490  26.6017390  72.3744130 108.8163430  27.2671240  72.9617470
 108.8803050  25.7700940  72.7456750 112.3761610  27.0601630  75.2583680
 112.0761750  27.2058810  74.3611500 113.1472850  26.5006920  75.1657070
 117.7190060  31.8570630  73.2538810 117.7334600  30.9251590  73.0357720
 117.0115160  31.9430390  73.8928580 115.5464140  30.9835830  63.5061650
 116.2335270  31.5305040  63.8869240 114.7596560  31.5276560  63.5411260
 107.6856540  26.6008650  58.9978730 108.5551390  26.8833450  59.2814650
 107.1946860  27.4144520  58.8827540 114.8491350  27.9881860  63.1187010
 115.3054130  28.7987110  63.3447200 114.4979560  27.6705000  63.9505500
 117.1523960  33.4988200  70.3479310 117.7966180  33.7047580  71.0252730
 117.5153400  32.7376600  69.8950160 110.7503130  18.3319510  63.5909530
 110.6217760  18.3237410  64.5394450 109.9265150  18.6702600  63.2400540
 108.0527790  35.8136030  59.5640360 108.4125430  36.4125370  58.9097630
 107.9120130  36.3595920  60.3375390 107.7497060  20.0910630  73.0516230
 107.0355580  20.2907550  73.6568840 108.1692100  19.3150200  73.4231030
 108.0369650  34.0790890  74.0382760 108.1460770  33.1385630  73.8978150
 107.3850210  34.3445640  73.3896490 116.0282240  32.3506780  75.4380880
 115.7079110  31.6316020  75.9826570 115.3540600  33.0261850  75.5116940
 114.0696410  33.1967230  60.3814030 114.0606510  33.9296920  59.7658540
 113.1494770  32.9498810  60.4740990 109.6703050  28.4182120  61.1260790
 109.0631000  29.1581020  61.1356090 110.1452400  28.5081480  60.2998990
 117.0556010  33.2595470  59.0439220 117.1567990  33.0559460  58.1141200
 116.1557750  33.0053750  59.2487000 114.5781900  23.8175830  63.0263120
 113.8698050  24.2862170  63.4676730 114.8626380  23.1597840  63.6608310
 116.2037830  25.2372530  71.0255650 116.7023080  25.7118350  71.6907500
 116.3460780  24.3136050  71.2325680 115.6974120  35.7781790  63.7386890
 115.9515620  35.7403180  62.8166260 114.7486600  35.6515120  63.7315140
 112.7816920  22.1260910  60.4013830 113.6307450  22.5631060  60.3354020
 112.4148190  22.4381170  61.2285890 111.6808340  28.3793270  58.8749360
 112.4471610  28.2674630  59.4374790 111.7583030  27.6831240  58.2226130
 110.3755100  25.8118340  59.5582250 110.4558690  24.8645850  59.6699650
 111.2674850  26.1425220  59.6642910 111.1769810  35.9613730  66.6616790
 111.9132290  35.4129190  66.9325360 111.5610730  36.8269740  66.5222780
 108.0615290  32.0287300  62.5358300 107.1355070  32.2708440  62.5263710
 108.5271720  32.8561560  62.4143050 114.2872120  35.1344040  58.4842360
 115.0800730  35.4232870  58.0324150 113.7676470  34.7036210  57.8054840
 107.9025900  27.6333260  74.7938420 108.4064920  27.0540540  75.3654650
 107.1633320  27.9173490  75.3314790 114.8049520  30.3547450  58.3484710
 114.7000160  29.7399800  59.0746090 114.6373740  29.8313340  57.5647720
 114.9563840  29.0404250  74.3273940 114.1909510  29.6089250  74.2428610
 115.1379800  28.7480460  73.4342170 113.7127370  28.3758400  60.8492000
 114.1343790  28.2098270  61.6923390 113.8378210  27.5658630  60.3547140
 111.8754790  24.3554950  73.6562980 111.3451250  23.8645900  73.0286320
 112.5442860  24.7839150  73.1220910 116.2255010  27.3996010  58.0969100
 116.7460670  26.6845030  57.7310250 116.8723410  28.0381880  58.3969610
 112.3627090  21.3217320  73.7360270 112.2683960  20.7038070  73.0111140
 111.7824480  22.0483610  73.5090180 115.1288530  19.8790560  70.7687660
 114.6805830  19.9014820  69.9233210 114.4953730  19.4809580  71.3657960
 115.5348080  28.7744890  71.3900100 115.9536190  29.6177620  71.2176340
 114.6156710  28.9116930  71.1606880 112.6086270  24.4491630  57.7950160
 112.4075330  23.5858990  58.1563500 112.4378320  24.3624990  56.8571760
 113.3855500  35.0797900  72.5057830 112.8476590  35.8043960  72.1866530
 113.6389460  34.6028240  71.7155170 114.6380750  23.0482420  74.0313760
 115.2280440  22.7398270  74.7191580 113.8200990  22.5762170  74.1873660
 111.4069070  21.5492250  57.7828040 111.7094970  21.5559680  56.8747190
 112.1463660  21.1990110  58.2795700 116.2417710  36.3149110  72.7644480
 116.1676410  37.2184250  73.0716850 115.3396550  35.9961010  72.7366550
 114.6254000  20.4926870  58.7684240 114.2776000  19.8150860  58.1886690
 114.8266770  20.0316380  59.5827630 116.7903040  35.4807620  60.3870840
 117.6853830  35.8192590  60.4089600 116.8220670  34.7587030  59.7595120
 110.4299200  30.8534670  58.6157840 110.8674070  31.3964340  59.2715420
 110.9146930  30.0281620  58.6254180 107.6445000  33.6423700  66.0678100
 107.9748010  32.7744760  65.8356740 108.0736000  33.8482220  66.8983060
 112.2406920  31.9732710  63.7280070 111.9402460  31.8497680  64.6283980
 112.1344410  31.1141300  63.3195800 108.1335210  34.5094290  68.8059730
 107.6966200  34.6895090  69.6383880 108.7012890  35.2668910  68.6641450
 107.9659640  27.0214520  65.1648610 107.3108480  26.7526160  64.5208310
 108.8037590  26.9119000  64.7150590 109.0035570  27.4067090  69.7051950
 109.3708610  27.3194490  70.5847970 108.4346390  26.6433640  69.6058810
 108.5551570  24.3176180  73.6110370 107.6607620  24.2842940  73.9504080
 109.0949120  24.5162970  74.3761620 107.1797720  24.2313450  61.1073940
 106.2761800  24.4943650  60.9325600 107.6638340  24.5024620  60.3273900
 109.7224930  23.2878990  59.0168320 110.4316630  22.8662210  58.5315600
 109.0064870  23.3554220  58.3851670 109.3699090  19.3418320  58.0570970
 110.0927220  19.8827260  58.3752190 109.6423610  19.0681740  57.1812510
 109.0591280  18.5924510  67.9593590 109.7067470  18.0421890  67.5188750
 109.4793120  18.8467660  68.7809400 108.8123280  18.7480180  70.7018910
 108.4638100  19.2044000  71.4677090 108.4810980  17.8537310  70.7841340
 110.4187650  31.9199780  74.8672100 110.3757280  31.5492690  75.7486560
 110.5498660  32.8577350  75.0073920 114.1193680  33.4759370  70.4681820
 113.8785040  33.7433930  69.5812340 115.0596320  33.6465100  70.5232680
 116.3248100  19.9392060  74.2238330 116.2636990  20.5313890  74.9733740
 117.2648480  19.8318020  74.0788590 109.4843920  18.2756380  73.9769680
 110.0326910  18.0944430  73.2135790 109.5499230  17.4850490  74.5125990
 110.2575680  34.8662030  71.9869880 109.6636000  34.7346730  72.7259920
 110.2499520  34.0300170  71.5211980 109.8887910  32.2320410  70.9377920
 109.1621970  31.6125700  70.8703870 109.9497060  32.6261020  70.0676000
 113.4933010  34.4465410  67.7227330 114.0098030  33.8352770  67.1975590
 114.1430390  34.9494190  68.2138340 116.2328510  35.3373900  68.5496310
 116.5206320  35.0828200  67.6729320 116.7451730  34.7851260  69.1401880
 117.4505520  19.0764100  69.1292820 116.6677310  19.5509600  69.4089580
 117.1568450  18.1718930  69.0206000 108.1717910  35.5494800  64.1474680
 108.0039950  34.9165480  64.8456570 107.3052420  35.7554200  63.7968870
 108.7945930  19.3811580  61.6506540 109.5525290  19.4940460  61.0770570
 108.3323100  20.2180780  61.6049970 115.3359740  21.4950850  64.6408850
 114.5234250  21.1207740  64.3004730 115.8401380  20.7395930  64.9430040
 109.7780610  34.2428030  61.5924820 109.2528230  34.6236060  60.8886780
 109.7025190  34.8678800  62.3134530 111.1671080  19.9075630  60.1908510
 111.6963840  19.1205430  60.0616460 111.7999400  20.5866820  60.4244040
 113.3608920  19.6450770  63.2453900 112.7311660  18.9438080  63.4124030
 112.8214060  20.4054900  63.0287060 116.3000870  36.2590000  75.9164510
 117.2268180  36.0234270  75.9600470 116.2851300  37.0862000  75.4350540
 113.4864480  18.9234750  75.6806390 113.2048750  19.4268350  74.9167210
 113.8684180  18.1256500  75.3148520 112.3773580  36.1910410  60.4674070
 113.1092400  35.9069690  59.9197960 112.6367250  35.9523690  61.3573450
 111.5388370  32.3075140  60.4720400 110.9097250  32.7760240  61.0206230
 111.6536200  31.4624360  60.9066590 117.1256130  28.1359820  48.5030870
 116.3498230  27.6560260  48.7929440 117.7769060  27.4565470  48.3287030
 111.1421960  28.4479630  49.3806630 110.3106840  28.1928340  49.7803140
 111.7502940  28.5190400  50.1164550 111.1223220  32.4819720  49.5764650
 111.4251260  31.5917460  49.3974870 111.8666810  33.0389940  49.3486900
 109.5513910  23.4081520  43.1649020 108.6630610  23.7497490  43.0628900
 109.8355100  23.2081840  42.2729850 107.5146920  26.0087170  49.0488720
 108.0863030  25.2409370  49.0492360 107.5148460  26.3075930  48.1395330
 116.5665120  30.8117010  48.5101030 116.4973400  29.8706950  48.3490160
 117.3284980  30.9018420  49.0823600 108.7571790  21.4171530  50.8357650
 108.5774630  20.5197280  51.1160410 108.3551870  21.9643400  51.5104600
 117.5970290  23.6187390  48.7369960 117.9735110  22.7459270  48.6243630
 117.4989800  23.9546090  47.8460400 111.7275300  21.9913020  44.1987400
 111.8342050  22.8916750  44.5056160 110.8167660  21.9430990  43.9082050
 109.3758460  23.9132030  49.4439990 110.0568570  24.1770400  50.0627390
 109.0606510  23.0732900  49.7778000 113.5683030  24.9599390  48.5312580
 114.0761250  25.4580360  49.1717600 114.0996270  24.1834590  48.3551940
 111.8519130  19.5997950  52.7976000 111.8537570  20.1170340  51.9921900
 111.0223440  19.1228130  52.7745930 113.1021980  29.2393130  50.9749500
 112.7691360  29.8662050  51.6170570 113.2788660  29.7655010  50.1951170
 111.5334460  21.3107910  50.8046450 111.8751270  22.1549960  50.5100320
 110.5950270  21.4591650  50.9211790 112.3141080  31.2073930  52.7898680
 112.9315080  31.8825010  52.5083130 111.4534200  31.6161910  52.6986180
 107.6073420  30.3973790  41.6705530 107.2301400  30.8860890  40.9390430
 107.8646490  31.0699070  42.3012060 115.2162350  18.7990180  47.1291040
 115.5237330  18.2437070  46.4126540 114.2863050  18.9334640  46.9464030
 117.6043110  26.8639010  43.8651160 116.6772390  26.7976390  44.0939630
 117.7567930  27.8019140  43.7506400 117.5912190  23.1356010  40.8618320
 116.6515860  23.2969970  40.9470780 117.9095450  23.8541690  40.3154310
 113.2099750  27.3903750  46.6470890 112.8056750  26.6781000  46.1516790
 113.2962870  27.0456990  47.5358930 113.6781450  31.0771310  48.8110100
 113.3809740  30.4716780  48.1317880 114.6281270  31.1148620  48.6999460
 111.9228370  24.1646960  50.4269930 112.4742960  24.2742300  49.6523180
 112.4371880  24.5384560  51.1425160 112.7699880  30.8153000  55.4617900
 111.8728410  31.0392970  55.7091300 112.7952750  30.9387940  54.5129300
 111.5971100  27.6866320  54.0375270 111.4578870  28.5589120  54.4062670
 110.7152460  27.3439130  53.8923210 113.3951450  33.6288020  56.2460420
 113.3666880  34.0330970  55.3788850 113.2316420  32.6998380  56.0832020
 109.9104380  26.2848730  44.1477540 109.7901980  27.0110820  43.5358810
 109.6005270  25.5151640  43.6705450 107.5489750  29.4563870  49.9546180
 107.6270170  29.5912640  49.0101900 108.1631430  28.7479760  50.1474300
 108.7937380  31.1564060  46.3652360 108.3865460  31.2978650  45.5105960
 109.6850390  30.8724220  46.1623570 113.0659040  35.3709840  44.4775030
 112.8901520  34.4545380  44.2642830 112.2114780  35.7297130  44.7172830
 107.6049270  30.4978040  52.4940640 107.7680310  30.0283400  51.6760010
 108.0701720  29.9901600  53.1589480 112.3768040  19.6283800  47.5301210
 111.9336190  20.4093340  47.1985730 112.9353030  19.9513690  48.2372150
 116.6637850  22.4952320  53.1336530 116.2017220  22.7035340  53.9456470
 116.2615960  21.6811670  52.8307200 115.4926860  19.2494500  42.4107040
 114.8681040  19.2454370  43.1360350 115.4056980  18.3825460  42.0143010
 114.4143940  20.1731130  49.3890810 114.7116270  21.0793960  49.3082830
 114.9629500  19.6849910  48.7750380 112.1682260  24.7517370  45.2582460
 111.9423180  24.5354540  46.1629080 111.3874790  25.1845830  44.9128430
 114.6081470  25.6502950  55.9242730 114.5125070  24.7097680  55.7743130
 115.4513450  25.8718020  55.5290800 109.7392010  22.0616620  54.0776510
 109.3455400  22.9091830  54.2849290 109.0510410  21.4242990  54.2685150
 116.3137060  22.1451590  57.1473250 115.6235380  21.9523790  57.7819340
 117.0569360  22.4286230  57.6797550 107.0409060  19.9845080  48.1106590
 106.7522110  20.5547940  48.8231570 107.7854820  19.5049530  48.4737820
 107.2279290  23.9265200  39.3209310 107.1453960  24.8695960  39.4624300
 106.8762350  23.7840110  38.4421660 115.0277420  22.6604230  48.3879660
 115.0313480  22.2194180  47.5384200 115.9228540  22.9821560  48.4951480
 110.8779800  22.5430720  47.3473870 110.5379850  23.0205950  48.1040920
 110.1157120  22.0895840  46.9874970 115.0897570  23.6616310  41.3786420
 115.2110390  23.6202790  42.3272240 114.7046080  24.5240460  41.2233150
 114.1019070  25.9717450  40.7769720 113.5335970  25.5235700  40.1505630
 114.8108070  26.3310230  40.2434870 109.1788250  29.8729470  54.6536450
 108.7943040  29.2323140  55.2519410 109.4900440  30.5765590  55.2231180
 115.3285390  26.7206010  50.1345070 115.6955520  26.2464580  50.8806410
 115.1390450  27.5947580  50.4753410 108.1925880  21.4649700  46.2638540
 107.9072800  21.1005370  47.1017160 108.1304740  20.7330160  45.6501680
 113.1184760  25.7614650  52.4529280 112.8141830  26.6406630  52.6779640
 114.0731220  25.8214440  52.4886720 111.6466550  29.9675640  43.0496130
 110.8728810  29.4273260  42.8894850 112.3761180  29.4482250  42.7113890
 117.8664470  20.3578960  42.9851910 117.0529080  19.8592130  42.9097220
 117.6726420  21.1977210  42.5688260 117.7873330  29.0350060  54.7291520
 117.7210640  28.1145730  54.4749110 117.1578470  29.1325500  55.4436160
 111.6903950  29.6356020  46.6874940 112.2082620  28.8324280  46.6331830
 111.2387970  29.5735160  47.5291770 116.5773450  30.9022300  41.9602240
 116.9189150  31.6464530  41.4645560 115.7486160  31.2153420  42.3227070
 109.1748490  26.6017390  53.6000640 108.8163430  27.2671240  54.1873980
 108.8803050  25.7700940  53.9713260 112.3761610  27.0601630  56.4840190
 112.0761750  27.2058810  55.5868010 113.1472850  26.5006920  56.3913580
 117.7190060  31.8570630  54.4795320 117.7334600  30.9251590  54.2614230
 117.0115160  31.9430390  55.1185090 115.5464140  30.9835830  44.7318160
 116.2335270  31.5305040  45.1125750 114.7596560  31.5276560  44.7667770
 107.6856540  26.6008650  40.2235240 108.5551390  26.8833450  40.5071160
 107.1946860  27.4144520  40.1084050 114.8491350  27.9881860  44.3443520
 115.3054130  28.7987110  44.5703710 114.4979560  27.6705000  45.1762010
 117.1523960  33.4988200  51.5735820 117.7966180  33.7047580  52.2509240
 117.5153400  32.7376600  51.1206670 110.7503130  18.3319510  44.8166040
 110.6217760  18.3237410  45.7650960 109.9265150  18.6702600  44.4657050
 108.0527790  35.8136030  40.7896870 108.4125430  36.4125370  40.1354140
 107.9120130  36.3595920  41.5631900 107.7497060  20.0910630  54.2772740
 107.0355580  20.2907550  54.8825350 108.1692100  19.3150200  54.6487540
 108.0369650  34.0790890  55.2639270 108.1460770  33.1385630  55.1234660
 107.3850210  34.3445640  54.6153000 116.0282240  32.3506780  56.6637390
 115.7079110  31.6316020  57.2083080 115.3540600  33.0261850  56.7373450
 114.0696410  33.1967230  41.6070540 114.0606510  33.9296920  40.9915050
 113.1494770  32.9498810  41.6997500 109.6703050  28.4182120  42.3517300
 109.0631000  29.1581020  42.3612600 110.1452400  28.5081480  41.5255500
 117.0556010  33.2595470  40.2695730 117.1567990  33.0559460  39.3397710
 116.1557750  33.0053750  40.4743510 114.5781900  23.8175830  44.2519630
 113.8698050  24.2862170  44.6933240 114.8626380  23.1597840  44.8864820
 116.2037830  25.2372530  52.2512160 116.7023080  25.7118350  52.9164010
 116.3460780  24.3136050  52.4582190 115.6974120  35.7781790  44.9643400
 115.9515620  35.7403180  44.0422770 114.7486600  35.6515120  44.9571650
 112.7816920  22.1260910  41.6270340 113.6307450  22.5631060  41.5610530
 112.4148190  22.4381170  42.4542400 111.6808340  28.3793270  40.1005870
 112.4471610  28.2674630  40.6631300 111.7583030  27.6831240  39.4482640
 110.3755100  25.8118340  40.7838760 110.4558690  24.8645850  40.8956160
 111.2674850  26.1425220  40.8899420 111.1769810  35.9613730  47.8873300
 111.9132290  35.4129190  48.1581870 111.5610730  36.8269740  47.7479290
 108.0615290  32.0287300  43.7614810 107.1355070  32.2708440  43.7520220
 108.5271720  32.8561560  43.6399560 110.1828090  35.1459800  57.0758880
 110.9840820  35.4671850  57.4894280 109.6679910  34.7855380  57.7978790
 114.2872120  35.1344040  39.7098870 115.0800730  35.4232870  39.2580660
 113.7676470  34.7036210  39.0311350 107.9025900  27.6333260  56.0194930
 108.4064920  27.0540540  56.5911160 107.1633320  27.9173490  56.5571300
 114.8049520  30.3547450  39.5741220 114.7000160  29.7399800  40.3002600
 114.6373740  29.8313340  38.7904230 114.9563840  29.0404250  55.5530450
 114.1909510  29.6089250  55.4685120 115.1379800  28.7480460  54.6598680
 109.9348980  25.7762850  56.9145000 109.9754320  25.4776720  57.8230230
 110.7894480  26.1770460  56.7552520 113.7127370  28.3758400  42.0748510
 114.1343790  28.2098270  42.9179900 113.8378210  27.5658630  41.5803650
 111.8754790  24.3554950  54.8819490 111.3451250  23.8645900  54.2542830
 112.5442860  24.7839150  54.3477420 116.2255010  27.3996010  39.3225610
 116.7460670  26.6845030  38.9566760 116.8723410  28.0381880  39.6226120
 112.3627090  21.3217320  54.9616780 112.2683960  20.7038070  54.2367650
 111.7824480  22.0483610  54.7346690 115.1288530  19.8790560  51.9944170
 114.6805830  19.9014820  51.1489720 114.4953730  19.4809580  52.5914470
 115.5348080  28.7744890  52.6156610 115.9536190  29.6177620  52.4432850
 114.6156710  28.9116930  52.3863390 112.6086270  24.4491630  39.0206670
 112.4075330  23.5858990  39.3820010 112.4378320  24.3624990  38.0828270
 113.3855500  35.0797900  53.7314340 112.8476590  35.8043960  53.4123040
 113.6389460  34.6028240  52.9411680 114.6380750  23.0482420  55.2570270
 115.2280440  22.7398270  55.9448090 113.8200990  22.5762170  55.4130170
 111.4069070  21.5492250  39.0084550 111.7094970  21.5559680  38.1003700
 112.1463660  21.1990110  39.5052210 116.2417710  36.3149110  53.9900990
 116.1676410  37.2184250  54.2973360 115.3396550  35.9961010  53.9623060
 114.6254000  20.4926870  39.9940750 114.2776000  19.8150860  39.4143200
 114.8266770  20.0316380  40.8084140 116.7903040  35.4807620  41.6127350
 117.6853830  35.8192590  41.6346110 116.8220670  34.7587030  40.9851630
 110.4299200  30.8534670  39.8414350 110.8674070  31.3964340  40.4971930
 110.9146930  30.0281620  39.8510690 107.6445000  33.6423700  47.2934610
 107.9748010  32.7744760  47.0613250 108.0736000  33.8482220  48.1239570
 112.2406920  31.9732710  44.9536580 111.9402460  31.8497680  45.8540490
 112.1344410  31.1141300  44.5452310 108.1335210  34.5094290  50.0316240
 107.6966200  34.6895090  50.8640390 108.7012890  35.2668910  49.8897960
 107.9659640  27.0214520  46.3905120 107.3108480  26.7526160  45.7464820
 108.8037590  26.9119000  45.9407100 109.0035570  27.4067090  50.9308460
 109.3708610  27.3194490  51.8104480 108.4346390  26.6433640  50.8315320
 108.5551570  24.3176180  54.8366880 107.6607620  24.2842940  55.1760590
 109.0949120  24.5162970  55.6018130 107.1797720  24.2313450  42.3330450
 106.2761800  24.4943650  42.1582110 107.6638340  24.5024620  41.5530410
 109.7224930  23.2878990  40.2424830 110.4316630  22.8662210  39.7572110
 109.0064870  23.3554220  39.6108180 109.3699090  19.3418320  39.2827480
 110.0927220  19.8827260  39.6008700 109.6423610  19.0681740  38.4069020
 109.0591280  18.5924510  49.1850100 109.7067470  18.0421890  48.7445260
 109.4793120  18.8467660  50.0065910 108.8123280  18.7480180  51.9275420
 108.4638100  19.2044000  52.6933600 108.4810980  17.8537310  52.0097850
 110.4187650  31.9199780  56.0928610 110.3757280  31.5492690  56.9743070
 110.5498660  32.8577350  56.2330430 114.1193680  33.4759370  51.6938330
 113.8785040  33.7433930  50.8068850 115.0596320  33.6465100  51.7489190
 116.3248100  19.9392060  55.4494840 116.2636990  20.5313890  56.1990250
 117.2648480  19.8318020  55.3045100 109.4843920  18.2756380  55.2026190
 110.0326910  18.0944430  54.4392300 109.5499230  17.4850490  55.7382500
 110.2575680  34.8662030  53.2126390 109.6636000  34.7346730  53.9516430
 110.2499520  34.0300170  52.7468490 109.8887910  32.2320410  52.1634430
 109.1621970  31.6125700  52.0960380 109.9497060  32.6261020  51.2932510
 113.4933010  34.4465410  48.9483840 114.0098030  33.8352770  48.4232100
 114.1430390  34.9494190  49.4394850 116.2328510  35.3373900  49.7752820
 116.5206320  35.0828200  48.8985830 116.7451730  34.7851260  50.3658390
 117.4505520  19.0764100  50.3549330 116.6677310  19.5509600  50.6346090
 117.1568450  18.1718930  50.2462510 108.1717910  35.5494800  45.3731190
 108.0039950  34.9165480  46.0713080 107.3052420  35.7554200  45.0225380
 108.7945930  19.3811580  42.8763050 109.5525290  19.4940460  42.3027080
 108.3323100  20.2180780  42.8306480 115.3359740  21.4950850  45.8665360
 114.5234250  21.1207740  45.5261240 115.8401380  20.7395930  46.1686550
 109.7780610  34.2428030  42.8181330 109.2528230  34.6236060  42.1143290
 109.7025190  34.8678800  43.5391040 111.1671080  19.9075630  41.4165020
 111.6963840  19.1205430  41.2872970 111.7999400  20.5866820  41.6500550
 113.3608920  19.6450770  44.4710410 112.7311660  18.9438080  44.6380540
 112.8214060  20.4054900  44.2543570 116.3000870  36.2590000  57.1421020
 117.2268180  36.0234270  57.1856980 116.2851300  37.0862000  56.6607050
 113.4864480  18.9234750  56.9062900 113.2048750  19.4268350  56.1423720
 113.8684180  18.1256500  56.5405030 112.3773580  36.1910410  41.6930580
 113.1092400  35.9069690  41.1454470 112.6367250  35.9523690  42.5829960
 111.5388370  32.3075140  41.6976910 110.9097250  32.7760240  42.2462740
 111.6536200  31.4624360  42.1323100 117.1256130  28.1359820  29.7287380
 116.3498230  27.6560260  30.0185950 117.7769060  27.4565470  29.5543540
 111.1421960  28.4479630  30.6063140 110.3106840  28.1928340  31.0059650
 111.7502940  28.5190400  31.3421060 111.1223220  32.4819720  30.8021160
 111.4251260  31.5917460  30.6231380 111.8666810  33.0389940  30.5743410
 109.5513910  23.4081520  24.3905530 108.6630610  23.7497490  24.2885410
 109.8355100  23.2081840  23.4986360 107.5146920  26.0087170  30.2745230
 108.0863030  25.2409370  30.2748870 107.5148460  26.3075930  29.3651840
 116.5665120  30.8117010  29.7357540 116.4973400  29.8706950  29.5746670
 117.3284980  30.9018420  30.3080110 108.7571790  21.4171530  32.0614160
 108.5774630  20.5197280  32.3416920 108.3551870  21.9643400  32.7361110
 117.5970290  23.6187390  29.9626470 117.9735110  22.7459270  29.8500140
 117.4989800  23.9546090  29.0716910 111.7275300  21.9913020  25.4243910
 111.8342050  22.8916750  25.7312670 110.8167660  21.9430990  25.1338560
 109.3758460  23.9132030  30.6696500 110.0568570  24.1770400  31.2883900
 109.0606510  23.0732900  31.0034510 113.5683030  24.9599390  29.7569090
 114.0761250  25.4580360  30.3974110 114.0996270  24.1834590  29.5808450
 111.8519130  19.5997950  34.0232510 111.8537570  20.1170340  33.2178410
 111.0223440  19.1228130  34.0002440 113.1021980  29.2393130  32.2006010
 112.7691360  29.8662050  32.8427080 113.2788660  29.7655010  31.4207680
 111.5334460  21.3107910  32.0302960 111.8751270  22.1549960  31.7356830
 110.5950270  21.4591650  32.1468300 112.3141080  31.2073930  34.0155190
 112.9315080  31.8825010  33.7339640 111.4534200  31.6161910  33.9242690
 107.6073420  30.3973790  22.8962040 107.2301400  30.8860890  22.1646940
 107.8646490  31.0699070  23.5268570 115.2162350  18.7990180  28.3547550
 115.5237330  18.2437070  27.6383050 114.2863050  18.9334640  28.1720540
 117.6043110  26.8639010  25.0907670 116.6772390  26.7976390  25.3196140
 117.7567930  27.8019140  24.9762910 117.5912190  23.1356010  22.0874830
 116.6515860  23.2969970  22.1727290 117.9095450  23.8541690  21.5410820
 113.2099750  27.3903750  27.8727400 112.8056750  26.6781000  27.3773300
 113.2962870  27.0456990  28.7615440 113.6781450  31.0771310  30.0366610
 113.3809740  30.4716780  29.3574390 114.6281270  31.1148620  29.9255970
 111.9228370  24.1646960  31.6526440 112.4742960  24.2742300  30.8779690
 112.4371880  24.5384560  32.3681670 112.7699880  30.8153000  36.6874410
 111.8728410  31.0392970  36.9347810 112.7952750  30.9387940  35.7385810
 111.5971100  27.6866320  35.2631780 111.4578870  28.5589120  35.6319180
 110.7152460  27.3439130  35.1179720 113.3951450  33.6288020  37.4716930
 113.3666880  34.0330970  36.6045360 113.2316420  32.6998380  37.3088530
 109.9104380  26.2848730  25.3734050 109.7901980  27.0110820  24.7615320
 109.6005270  25.5151640  24.8961960 107.5489750  29.4563870  31.1802690
 107.6270170  29.5912640  30.2358410 108.1631430  28.7479760  31.3730810
 108.7937380  31.1564060  27.5908870 108.3865460  31.2978650  26.7362470
 109.6850390  30.8724220  27.3880080 113.0659040  35.3709840  25.7031540
 112.8901520  34.4545380  25.4899340 112.2114780  35.7297130  25.9429340
 107.6049270  30.4978040  33.7197150 107.7680310  30.0283400  32.9016520
 108.0701720  29.9901600  34.3845990 112.3768040  19.6283800  28.7557720
 111.9336190  20.4093340  28.4242240 112.9353030  19.9513690  29.4628660
 116.6637850  22.4952320  34.3593040 116.2017220  22.7035340  35.1712980
 116.2615960  21.6811670  34.0563710 115.4926860  19.2494500  23.6363550
 114.8681040  19.2454370  24.3616860 115.4056980  18.3825460  23.2399520
 114.4143940  20.1731130  30.6147320 114.7116270  21.0793960  30.5339340
 114.9629500  19.6849910  30.0006890 112.1682260  24.7517370  26.4838970
 111.9423180  24.5354540  27.3885590 111.3874790  25.1845830  26.1384940
 114.6081470  25.6502950  37.1499240 114.5125070  24.7097680  36.9999640
 115.4513450  25.8718020  36.7547310 109.7392010  22.0616620  35.3033020
 109.3455400  22.9091830  35.5105800 109.0510410  21.4242990  35.4941660
 116.3137060  22.1451590  38.3729760 115.6235380  21.9523790  39.0075850
 117.0569360  22.4286230  38.9054060 107.0409060  19.9845080  29.3363100
 106.7522110  20.5547940  30.0488080 107.7854820  19.5049530  29.6994330
 107.2279290  23.9265200  20.5465820 107.1453960  24.8695960  20.6880810
 106.8762350  23.7840110  19.6678170 115.0277420  22.6604230  29.6136170
 115.0313480  22.2194180  28.7640710 115.9228540  22.9821560  29.7207990
 110.8779800  22.5430720  28.5730380 110.5379850  23.0205950  29.3297430
 110.1157120  22.0895840  28.2131480 115.0897570  23.6616310  22.6042930
 115.2110390  23.6202790  23.5528750 114.7046080  24.5240460  22.4489660
 114.1019070  25.9717450  22.0026230 113.5335970  25.5235700  21.3762140
 114.8108070  26.3310230  21.4691380 109.1788250  29.8729470  35.8792960
 108.7943040  29.2323140  36.4775920 109.4900440  30.5765590  36.4487690
 115.3285390  26.7206010  31.3601580 115.6955520  26.2464580  32.1062920
 115.1390450  27.5947580  31.7009920 108.1925880  21.4649700  27.4895050
 107.9072800  21.1005370  28.3273670 108.1304740  20.7330160  26.8758190
 113.1184760  25.7614650  33.6785790 112.8141830  26.6406630  33.9036150
 114.0731220  25.8214440  33.7143230 111.6466550  29.9675640  24.2752640
 110.8728810  29.4273260  24.1151360 112.3761180  29.4482250  23.9370400
 117.8664470  20.3578960  24.2108420 117.0529080  19.8592130  24.1353730
 117.6726420  21.1977210  23.7944770 117.7873330  29.0350060  35.9548030
 117.7210640  28.1145730  35.7005620 117.1578470  29.1325500  36.6692670
 111.6903950  29.6356020  27.9131450 112.2082620  28.8324280  27.8588340
 111.2387970  29.5735160  28.7548280 116.5773450  30.9022300  23.1858750
 116.9189150  31.6464530  22.6902070 115.7486160  31.2153420  23.5483580
 109.1748490  26.6017390  34.8257150 108.8163430  27.2671240  35.4130490
 108.8803050  25.7700940  35.1969770 112.3761610  27.0601630  37.7096700
 112.0761750  27.2058810  36.8124520 113.1472850  26.5006920  37.6170090
 117.7190060  31.8570630  35.7051830 117.7334600  30.9251590  35.4870740
 117.0115160  31.9430390  36.3441600 115.5464140  30.9835830  25.9574670
 116.2335270  31.5305040  26.3382260 114.7596560  31.5276560  25.9924280
 107.6856540  26.6008650  21.4491750 108.5551390  26.8833450  21.7327670
 107.1946860  27.4144520  21.3340560 114.8491350  27.9881860  25.5700030
 115.3054130  28.7987110  25.7960220 114.4979560  27.6705000  26.4018520
 117.1523960  33.4988200  32.7992330 117.7966180  33.7047580  33.4765750
 117.5153400  32.7376600  32.3463180 110.7503130  18.3319510  26.0422550
 110.6217760  18.3237410  26.9907470 109.9265150  18.6702600  25.6913560
 108.0527790  35.8136030  22.0153380 108.4125430  36.4125370  21.3610650
 107.9120130  36.3595920  22.7888410 107.7497060  20.0910630  35.5029250
 107.0355580  20.2907550  36.1081860 108.1692100  19.3150200  35.8744050
 108.0369650  34.0790890  36.4895780 108.1460770  33.1385630  36.3491170
 107.3850210  34.3445640  35.8409510 116.0282240  32.3506780  37.8893900
 115.7079110  31.6316020  38.4339590 115.3540600  33.0261850  37.9629960
 114.0696410  33.1967230  22.8327050 114.0606510  33.9296920  22.2171560
 113.1494770  32.9498810  22.9254010 109.6703050  28.4182120  23.5773810
 109.0631000  29.1581020  23.5869110 110.1452400  28.5081480  22.7512010
 117.0556010  33.2595470  21.4952240 117.1567990  33.0559460  20.5654220
 116.1557750  33.0053750  21.7000020 114.5781900  23.8175830  25.4776140
 113.8698050  24.2862170  25.9189750 114.8626380  23.1597840  26.1121330
 116.2037830  25.2372530  33.4768670 116.7023080  25.7118350  34.1420520
 116.3460780  24.3136050  33.6838700 115.6974120  35.7781790  26.1899910
 115.9515620  35.7403180  25.2679280 114.7486600  35.6515120  26.1828160
 112.7816920  22.1260910  22.8526850 113.6307450  22.5631060  22.7867040
 112.4148190  22.4381170  23.6798910 111.6808340  28.3793270  21.3262380
 112.4471610  28.2674630  21.8887810 111.7583030  27.6831240  20.6739150
 110.3755100  25.8118340  22.0095270 110.4558690  24.8645850  22.1212670
 111.2674850  26.1425220  22.1155930 111.1769810  35.9613730  29.1129810
 111.9132290  35.4129190  29.3838380 111.5610730  36.8269740  28.9735800
 108.0615290  32.0287300  24.9871320 107.1355070  32.2708440  24.9776730
 108.5271720  32.8561560  24.8656070 110.1828090  35.1459800  38.3015390
 110.9840820  35.4671850  38.7150790 109.6679910  34.7855380  39.0235300
 114.2872120  35.1344040  20.9355380 115.0800730  35.4232870  20.4837170
 113.7676470  34.7036210  20.2567860 107.9025900  27.6333260  37.2451440
 108.4064920  27.0540540  37.8167670 107.1633320  27.9173490  37.7827810
 114.8049520  30.3547450  20.7997730 114.7000160  29.7399800  21.5259110
 114.6373740  29.8313340  20.0160740 114.9563840  29.0404250  36.7786960
 114.1909510  29.6089250  36.6941630 115.1379800  28.7480460  35.8855190
 109.9348980  25.7762850  38.1401510 109.9754320  25.4776720  39.0486740
 110.7894480  26.1770460  37.9809030 113.7127370  28.3758400  23.3005020
 114.1343790  28.2098270  24.1436410 113.8378210  27.5658630  22.8060160
 111.8754790  24.3554950  36.1076000 111.3451250  23.8645900  35.4799340
 112.5442860  24.7839150  35.5733930 116.2255010  27.3996010  20.5482120
 116.7460670  26.6845030  20.1823270 116.8723410  28.0381880  20.8482630
 112.3627090  21.3217320  36.1873290 112.2683960  20.7038070  35.4624160
 111.7824480  22.0483610  35.9603200 115.1288530  19.8790560  33.2200680
 114.6805830  19.9014820  32.3746230 114.4953730  19.4809580  33.8170980
 115.5348080  28.7744890  33.8413120 115.9536190  29.6177620  33.6689360
 114.6156710  28.9116930  33.6119900 112.6086270  24.4491630  20.2463180
 112.4075330  23.5858990  20.6076520 112.4378320  24.3624990  19.3084780
 113.3855500  35.0797900  34.9570850 112.8476590  35.8043960  34.6379550
 113.6389460  34.6028240  34.1668190 114.6380750  23.0482420  36.4826780
 115.2280440  22.7398270  37.1704600 113.8200990  22.5762170  36.6386680
 111.4069070  21.5492250  20.2341060 111.7094970  21.5559680  19.3260210
 112.1463660  21.1990110  20.7308720 116.2417710  36.3149110  35.2157500
 116.1676410  37.2184250  35.5229870 115.3396550  35.9961010  35.1879570
 114.6254000  20.4926870  21.2197260 114.2776000  19.8150860  20.6399710
 114.8266770  20.0316380  22.0340650 116.7903040  35.4807620  22.8383860
 117.6853830  35.8192590  22.8602620 116.8220670  34.7587030  22.2108140
 110.4299200  30.8534670  21.0670860 110.8674070  31.3964340  21.7228440
 110.9146930  30.0281620  21.0767200 107.6445000  33.6423700  28.5191120
 107.9748010  32.7744760  28.2869760 108.0736000  33.8482220  29.3496080
 112.2406920  31.9732710  26.1793090 111.9402460  31.8497680  27.0797000
 112.1344410  31.1141300  25.7708820 108.1335210  34.5094290  31.2572750
 107.6966200  34.6895090  32.0896900 108.7012890  35.2668910  31.1154470
 107.9659640  27.0214520  27.6161630 107.3108480  26.7526160  26.9721330
 108.8037590  26.9119000  27.1663610 109.0035570  27.4067090  32.1564970
 109.3708610  27.3194490  33.0360990 108.4346390  26.6433640  32.0571830
 108.5551570  24.3176180  36.0623390 107.6607620  24.2842940  36.4017100
 109.0949120  24.5162970  36.8274640 107.1797720  24.2313450  23.5586960
 106.2761800  24.4943650  23.3838620 107.6638340  24.5024620  22.7786920
 109.7224930  23.2878990  21.4681340 110.4316630  22.8662210  20.9828620
 109.0064870  23.3554220  20.8364690 109.3699090  19.3418320  20.5083990
 110.0927220  19.8827260  20.8265210 109.6423610  19.0681740  19.6325530
 109.0591280  18.5924510  30.4106610 109.7067470  18.0421890  29.9701770
 109.4793120  18.8467660  31.2322420 108.8123280  18.7480180  33.1531930
 108.4638100  19.2044000  33.9190110 108.4810980  17.8537310  33.2354360
 110.4187650  31.9199780  37.3185120 110.3757280  31.5492690  38.1999580
 110.5498660  32.8577350  37.4586940 114.1193680  33.4759370  32.9194840
 113.8785040  33.7433930  32.0325360 115.0596320  33.6465100  32.9745700
 116.3248100  19.9392060  36.6751350 116.2636990  20.5313890  37.4246760
 117.2648480  19.8318020  36.5301610 109.4843920  18.2756380  36.4282700
 110.0326910  18.0944430  35.6648810 109.5499230  17.4850490  36.9639010
 110.2575680  34.8662030  34.4382900 109.6636000  34.7346730  35.1772940
 110.2499520  34.0300170  33.9725000 109.8887910  32.2320410  33.3890940
 109.1621970  31.6125700  33.3216890 109.9497060  32.6261020  32.5189020
 113.4933010  34.4465410  30.1740350 114.0098030  33.8352770  29.6488610
 114.1430390  34.9494190  30.6651360 116.2328510  35.3373900  31.0009330
 116.5206320  35.0828200  30.1242340 116.7451730  34.7851260  31.5914900
 117.4505520  19.0764100  31.5805840 116.6677310  19.5509600  31.8602600
 117.1568450  18.1718930  31.4719020 108.1717910  35.5494800  26.5987700
 108.0039950  34.9165480  27.2969590 107.3052420  35.7554200  26.2481890
 108.7945930  19.3811580  24.1019560 109.5525290  19.4940460  23.5283590
 108.3323100  20.2180780  24.0562990 115.3359740  21.4950850  27.0921870
 114.5234250  21.1207740  26.7517750 115.8401380  20.7395930  27.3943060
 109.7780610  34.2428030  24.0437840 109.2528230  34.6236060  23.3399800
 109.7025190  34.8678800  24.7647550 111.1671080  19.9075630  22.6421530
 111.6963840  19.1205430  22.5129480 111.7999400  20.5866820  22.8757060
 113.3608920  19.6450770  25.6966920 112.7311660  18.9438080  25.8637050
 112.8214060  20.4054900  25.4800080 116.3000870  36.2590000  38.3677530
 117.2268180  36.0234270  38.4113490 116.2851300  37.0862000  37.8863560
 113.4864480  18.9234750  38.1319410 113.2048750  19.4268350  37.3680230
 113.8684180  18.1256500  37.7661540 112.3773580  36.1910410  22.9187090
 113.1092400  35.9069690  22.3710980 112.6367250  35.9523690  23.8086470
 111.5388370  32.3075140  22.9233420 110.9097250  32.7760240  23.4719250
 111.6536200  31.4624360  23.3579610 117.1256130  28.1359820  10.9543890
 116.3498230  27.6560260  11.2442460 117.7769060  27.4565470  10.7800050
 111.1421960  28.4479630  11.8319650 110.3106840  28.1928340  12.2316160
 111.7502940  28.5190400  12.5677570 111.1223220  32.4819720  12.0277670
 111.4251260  31.5917460  11.8487890 111.8666810  33.0389940  11.7999920
 109.5513910  23.4081520   5.6162040 108.6630610  23.7497490   5.5141920
 109.8355100  23.2081840   4.7242870 107.5146920  26.0087170  11.5001740
 108.0863030  25.2409370  11.5005380 107.5148460  26.3075930  10.5908350
 116.5665120  30.8117010  10.9614050 116.4973400  29.8706950  10.8003180
 117.3284980  30.9018420  11.5336620 108.7571790  21.4171530  13.2870670
 108.5774630  20.5197280  13.5673430 108.3551870  21.9643400  13.9617620
 117.5970290  23.6187390  11.1882980 117.9735110  22.7459270  11.0756650
 117.4989800  23.9546090  10.2973420 111.7275300  21.9913020   6.6500420
 111.8342050  22.8916750   6.9569180 110.8167660  21.9430990   6.3595070
 109.3758460  23.9132030  11.8953010 110.0568570  24.1770400  12.5140410
 109.0606510  23.0732900  12.2291020 113.5683030  24.9599390  10.9825600
 114.0761250  25.4580360  11.6230620 114.0996270  24.1834590  10.8064960
 111.8519130  19.5997950  15.2489020 111.8537570  20.1170340  14.4434920
 111.0223440  19.1228130  15.2258950 113.1021980  29.2393130  13.4262520
 112.7691360  29.8662050  14.0683590 113.2788660  29.7655010  12.6464190
 111.5334460  21.3107910  13.2559470 111.8751270  22.1549960  12.9613340
 110.5950270  21.4591650  13.3724810 112.3141080  31.2073930  15.2411700
 112.9315080  31.8825010  14.9596150 111.4534200  31.6161910  15.1499200
 107.6073420  30.3973790   4.1218550 107.2301400  30.8860890   3.3903450
 107.8646490  31.0699070   4.7525080 115.2162350  18.7990180   9.5804060
 115.5237330  18.2437070   8.8639560 114.2863050  18.9334640   9.3977050
 117.6043110  26.8639010   6.3164180 116.6772390  26.7976390   6.5452650
 117.7567930  27.8019140   6.2019420 117.5912190  23.1356010   3.3131340
 116.6515860  23.2969970   3.3983800 117.9095450  23.8541690   2.7667330
 113.2099750  27.3903750   9.0983910 112.8056750  26.6781000   8.6029810
 113.2962870  27.0456990   9.9871950 113.6781450  31.0771310  11.2623120
 113.3809740  30.4716780  10.5830900 114.6281270  31.1148620  11.1512480
 111.9228370  24.1646960  12.8782950 112.4742960  24.2742300  12.1036200
 112.4371880  24.5384560  13.5938180 112.7699880  30.8153000  17.9130920
 111.8728410  31.0392970  18.1604320 112.7952750  30.9387940  16.9642320
 111.5971100  27.6866320  16.4888290 111.4578870  28.5589120  16.8575690
 110.7152460  27.3439130  16.3436230 113.3951450  33.6288020  18.6973440
 113.3666880  34.0330970  17.8301870 113.2316420  32.6998380  18.5345040
 109.9104380  26.2848730   6.5990560 109.7901980  27.0110820   5.9871830
 109.6005270  25.5151640   6.1218470 107.5489750  29.4563870  12.4059200
 107.6270170  29.5912640  11.4614920 108.1631430  28.7479760  12.5987320
 108.7937380  31.1564060   8.8165380 108.3865460  31.2978650   7.9618980
 109.6850390  30.8724220   8.6136590 113.0659040  35.3709840   6.9288050
 112.8901520  34.4545380   6.7155850 112.2114780  35.7297130   7.1685850
 107.6049270  30.4978040  14.9453660 107.7680310  30.0283400  14.1273030
 108.0701720  29.9901600  15.6102500 112.3768040  19.6283800   9.9814230
 111.9336190  20.4093340   9.6498750 112.9353030  19.9513690  10.6885170
 116.6637850  22.4952320  15.5849550 116.2017220  22.7035340  16.3969490
 116.2615960  21.6811670  15.2820220 115.4926860  19.2494500   4.8620060
 114.8681040  19.2454370   5.5873370 115.4056980  18.3825460   4.4656030
 114.4143940  20.1731130  11.8403830 114.7116270  21.0793960  11.7595850
 114.9629500  19.6849910  11.2263400 112.1682260  24.7517370   7.7095480
 111.9423180  24.5354540   8.6142100 111.3874790  25.1845830   7.3641450
 114.6081470  25.6502950  18.3755750 114.5125070  24.7097680  18.2256150
 115.4513450  25.8718020  17.9803820 109.7392010  22.0616620  16.5289530
 109.3455400  22.9091830  16.7362310 109.0510410  21.4242990  16.7198170
 116.3137060  22.1451590  19.5986270 115.6235380  21.9523790  20.2332360
 117.0569360  22.4286230  20.1310570 107.0409060  19.9845080  10.5619610
 106.7522110  20.5547940  11.2744590 107.7854820  19.5049530  10.9250840
 115.0277420  22.6604230  10.8392680 115.0313480  22.2194180   9.9897220
 115.9228540  22.9821560  10.9464500 110.8779800  22.5430720   9.7986890
 110.5379850  23.0205950  10.5553940 110.1157120  22.0895840   9.4387990
 115.0897570  23.6616310   3.8299440 115.2110390  23.6202790   4.7785260
 114.7046080  24.5240460   3.6746170 114.1019070  25.9717450   3.2282740
 113.5335970  25.5235700   2.6018650 114.8108070  26.3310230   2.6947890
 109.1788250  29.8729470  17.1049470 108.7943040  29.2323140  17.7032430
 109.4900440  30.5765590  17.6744200 115.3285390  26.7206010  12.5858090
 115.6955520  26.2464580  13.3319430 115.1390450  27.5947580  12.9266430
 108.1925880  21.4649700   8.7151560 107.9072800  21.1005370   9.5530180
 108.1304740  20.7330160   8.1014700 113.1184760  25.7614650  14.9042300
 112.8141830  26.6406630  15.1292660 114.0731220  25.8214440  14.9399740
 111.6466550  29.9675640   5.5009150 110.8728810  29.4273260   5.3407870
 112.3761180  29.4482250   5.1626910 117.8664470  20.3578960   5.4364930
 117.0529080  19.8592130   5.3610240 117.6726420  21.1977210   5.0201280
 117.7873330  29.0350060  17.1804540 117.7210640  28.1145730  16.9262130
 117.1578470  29.1325500  17.8949180 111.6903950  29.6356020   9.1387960
 112.2082620  28.8324280   9.0844850 111.2387970  29.5735160   9.9804790
 116.5773450  30.9022300   4.4115260 116.9189150  31.6464530   3.9158580
 115.7486160  31.2153420   4.7740090 109.1748490  26.6017390  16.0513660
 108.8163430  27.2671240  16.6387000 108.8803050  25.7700940  16.4226280
 112.3761610  27.0601630  18.9353210 112.0761750  27.2058810  18.0381030
 113.1472850  26.5006920  18.8426600 117.7190060  31.8570630  16.9308340
 117.7334600  30.9251590  16.7127250 117.0115160  31.9430390  17.5698110
 115.5464140  30.9835830   7.1831180 116.2335270  31.5305040   7.5638770
 114.7596560  31.5276560   7.2180790 107.6856540  26.6008650   2.6748260
 108.5551390  26.8833450   2.9584180 107.1946860  27.4144520   2.5597070
 114.8491350  27.9881860   6.7956540 115.3054130  28.7987110   7.0216730
 114.4979560  27.6705000   7.6275030 117.1523960  33.4988200  14.0248840
 117.7966180  33.7047580  14.7022260 117.5153400  32.7376600  13.5719690
 110.7503130  18.3319510   7.2679060 110.6217760  18.3237410   8.2163980
 109.9265150  18.6702600   6.9170070 108.0527790  35.8136030   3.2409890
 108.4125430  36.4125370   2.5867160 107.9120130  36.3595920   4.0144920
 107.7497060  20.0910630  16.7285760 107.0355580  20.2907550  17.3338370
 108.1692100  19.3150200  17.1000560 108.0369650  34.0790890  17.7152290
 108.1460770  33.1385630  17.5747680 107.3850210  34.3445640  17.0666020
 116.0282240  32.3506780  19.1150410 115.7079110  31.6316020  19.6596100
 115.3540600  33.0261850  19.1886470 114.0696410  33.1967230   4.0583560
 114.0606510  33.9296920   3.4428070 113.1494770  32.9498810   4.1510520
 109.6703050  28.4182120   4.8030320 109.0631000  29.1581020   4.8125620
 110.1452400  28.5081480   3.9768520 117.0556010  33.2595470   2.7208750
 117.1567990  33.0559460   1.7910730 116.1557750  33.0053750   2.9256530
 114.5781900  23.8175830   6.7032650 113.8698050  24.2862170   7.1446260
 114.8626380  23.1597840   7.3377840 116.2037830  25.2372530  14.7025180
 116.7023080  25.7118350  15.3677030 116.3460780  24.3136050  14.9095210
 115.6974120  35.7781790   7.4156420 115.9515620  35.7403180   6.4935790
 114.7486600  35.6515120   7.4084670 112.7816920  22.1260910   4.0783360
 113.6307450  22.5631060   4.0123550 112.4148190  22.4381170   4.9055420
 111.6808340  28.3793270   2.5518890 112.4471610  28.2674630   3.1144320
 111.7583030  27.6831240   1.8995660 110.3755100  25.8118340   3.2351780
 110.4558690  24.8645850   3.3469180 111.2674850  26.1425220   3.3412440
 111.1769810  35.9613730  10.3386320 111.9132290  35.4129190  10.6094890
 111.5610730  36.8269740  10.1992310 108.0615290  32.0287300   6.2127830
 107.1355070  32.2708440   6.2033240 108.5271720  32.8561560   6.0912580
 110.1828090  35.1459800  19.5271900 110.9840820  35.4671850  19.9407300
 109.6679910  34.7855380  20.2491810 114.2872120  35.1344040   2.1611890
 115.0800730  35.4232870   1.7093680 113.7676470  34.7036210   1.4824370
 107.9025900  27.6333260  18.4707950 108.4064920  27.0540540  19.0424180
 107.1633320  27.9173490  19.0084320 114.9563840  29.0404250  18.0043470
 114.1909510  29.6089250  17.9198140 115.1379800  28.7480460  17.1111700
 109.9348980  25.7762850  19.3658020 109.9754320  25.4776720  20.2743250
 110.7894480  26.1770460  19.2065540 113.7127370  28.3758400   4.5261530
 114.1343790  28.2098270   5.3692920 113.8378210  27.5658630   4.0316670
 111.8754790  24.3554950  17.3332510 111.3451250  23.8645900  16.7055850
 112.5442860  24.7839150  16.7990440 112.3627090  21.3217320  17.4129800
 112.2683960  20.7038070  16.6880670 111.7824480  22.0483610  17.1859710
 115.1288530  19.8790560  14.4457190 114.6805830  19.9014820  13.6002740
 114.4953730  19.4809580  15.0427490 115.5348080  28.7744890  15.0669630
 115.9536190  29.6177620  14.8945870 114.6156710  28.9116930  14.8376410
 113.3855500  35.0797900  16.1827360 112.8476590  35.8043960  15.8636060
 113.6389460  34.6028240  15.3924700 114.6380750  23.0482420  17.7083290
 115.2280440  22.7398270  18.3961110 113.8200990  22.5762170  17.8643190
 116.2417710  36.3149110  16.4414010 116.1676410  37.2184250  16.7486380
 115.3396550  35.9961010  16.4136080 114.6254000  20.4926870   2.4453770
 114.2776000  19.8150860   1.8656220 114.8266770  20.0316380   3.2597160
 116.7903040  35.4807620   4.0640370 117.6853830  35.8192590   4.0859130
 116.8220670  34.7587030   3.4364650 110.4299200  30.8534670   2.2927370
 110.8674070  31.3964340   2.9484950 110.9146930  30.0281620   2.3023710
 107.6445000  33.6423700   9.7447630 107.9748010  32.7744760   9.5126270
 108.0736000  33.8482220  10.5752590 112.2406920  31.9732710   7.4049600
 111.9402460  31.8497680   8.3053510 112.1344410  31.1141300   6.9965330
 108.1335210  34.5094290  12.4829260 107.6966200  34.6895090  13.3153410
 108.7012890  35.2668910  12.3410980 107.9659640  27.0214520   8.8418140
 107.3108480  26.7526160   8.1977840 108.8037590  26.9119000   8.3920120
 109.0035570  27.4067090  13.3821480 109.3708610  27.3194490  14.2617500
 108.4346390  26.6433640  13.2828340 108.5551570  24.3176180  17.2879900
 107.6607620  24.2842940  17.6273610 109.0949120  24.5162970  18.0531150
 107.1797720  24.2313450   4.7843470 106.2761800  24.4943650   4.6095130
 107.6638340  24.5024620   4.0043430 109.7224930  23.2878990   2.6937850
 110.4316630  22.8662210   2.2085130 109.0064870  23.3554220   2.0621200
 109.0591280  18.5924510  11.6363120 109.7067470  18.0421890  11.1958280
 109.4793120  18.8467660  12.4578930 108.8123280  18.7480180  14.3788440
 108.4638100  19.2044000  15.1446620 108.4810980  17.8537310  14.4610870
 110.4187650  31.9199780  18.5441630 110.3757280  31.5492690  19.4256090
 110.5498660  32.8577350  18.6843450 114.1193680  33.4759370  14.1451350
 113.8785040  33.7433930  13.2581870 115.0596320  33.6465100  14.2002210
 116.3248100  19.9392060  17.9007860 116.2636990  20.5313890  18.6503270
 117.2648480  19.8318020  17.7558120 109.4843920  18.2756380  17.6539210
 110.0326910  18.0944430  16.8905320 109.5499230  17.4850490  18.1895520
 110.2575680  34.8662030  15.6639410 109.6636000  34.7346730  16.4029450
 110.2499520  34.0300170  15.1981510 109.8887910  32.2320410  14.6147450
 109.1621970  31.6125700  14.5473400 109.9497060  32.6261020  13.7445530
 113.4933010  34.4465410  11.3996860 114.0098030  33.8352770  10.8745120
 114.1430390  34.9494190  11.8907870 116.2328510  35.3373900  12.2265840
 116.5206320  35.0828200  11.3498850 116.7451730  34.7851260  12.8171410
 117.4505520  19.0764100  12.8062350 116.6677310  19.5509600  13.0859110
 117.1568450  18.1718930  12.6975530 108.1717910  35.5494800   7.8244210
 108.0039950  34.9165480   8.5226100 107.3052420  35.7554200   7.4738400
 108.7945930  19.3811580   5.3276070 109.5525290  19.4940460   4.7540100
 108.3323100  20.2180780   5.2819500 115.3359740  21.4950850   8.3178380
 114.5234250  21.1207740   7.9774260 115.8401380  20.7395930   8.6199570
 109.7780610  34.2428030   5.2694350 109.2528230  34.6236060   4.5656310
 109.7025190  34.8678800   5.9904060 111.1671080  19.9075630   3.8678040
 111.6963840  19.1205430   3.7385990 111.7999400  20.5866820   4.1013570
 113.3608920  19.6450770   6.9223430 112.7311660  18.9438080   7.0893560
 112.8214060  20.4054900   6.7056590 116.3000870  36.2590000  19.5934040
 117.2268180  36.0234270  19.6370000 116.2851300  37.0862000  19.1120070
 113.4864480  18.9234750  19.3575920 113.2048750  19.4268350  18.5936740
 113.8684180  18.1256500  18.9918050 112.3773580  36.1910410   4.1443600
 113.1092400  35.9069690   3.5967490 112.6367250  35.9523690   5.0342980
 111.5388370  32.3075140   4.1489930 110.9097250  32.7760240   4.6975760
 111.6536200  31.4624360   4.5836120 117.1256130   9.3616330  67.2774360
 116.3498230   8.8816770  67.5672930 117.7769060   8.6821980  67.1030520
 111.1421960   9.6736140  68.1550120 110.3106840   9.4184850  68.5546630
 111.7502940   9.7446910  68.8908040 111.1223220  13.7076230  68.3508140
 111.4251260  12.8173970  68.1718360 111.8666810  14.2646450  68.1230390
 109.5513910   4.6338030  61.9392510 108.6630610   4.9754000  61.8372390
 109.8355100   4.4338350  61.0473340 107.5146920   7.2343680  67.8232210
 108.0863030   6.4665880  67.8235850 107.5148460   7.5332440  66.9138820
 116.5665120  12.0373520  67.2844520 116.4973400  11.0963460  67.1233650
 117.3284980  12.1274930  67.8567090 108.7571790   2.6428040  69.6101140
 108.5774630   1.7453790  69.8903900 108.3551870   3.1899910  70.2848090
 117.5970290   4.8443900  67.5113450 117.9735110   3.9715780  67.3987120
 117.4989800   5.1802600  66.6203890 111.7275300   3.2169530  62.9730890
 111.8342050   4.1173260  63.2799650 110.8167660   3.1687500  62.6825540
 109.3758460   5.1388540  68.2183480 110.0568570   5.4026910  68.8370880
 109.0606510   4.2989410  68.5521490 113.5683030   6.1855900  67.3056070
 114.0761250   6.6836870  67.9461090 114.0996270   5.4091100  67.1295430
 113.1021980  10.4649640  69.7492990 112.7691360  11.0918560  70.3914060
 113.2788660  10.9911520  68.9694660 111.5334460   2.5364420  69.5789940
 111.8751270   3.3806470  69.2843810 110.5950270   2.6848160  69.6955280
 112.3141080  12.4330440  71.5642170 112.9315080  13.1081520  71.2826620
 111.4534200  12.8418420  71.4729670 107.6073420  11.6230300  60.4449020
 107.2301400  12.1117400  59.7133920 107.8646490  12.2955580  61.0755550
 117.6043110   8.0895520  62.6394650 116.6772390   8.0232900  62.8683120
 117.7567930   9.0275650  62.5249890 117.5912190   4.3612520  59.6361810
 116.6515860   4.5226480  59.7214270 117.9095450   5.0798200  59.0897800
 113.2099750   8.6160260  65.4214380 112.8056750   7.9037510  64.9260280
 113.2962870   8.2713500  66.3102420 113.6781450  12.3027820  67.5853590
 113.3809740  11.6973290  66.9061370 114.6281270  12.3405130  67.4742950
 111.9228370   5.3903470  69.2013420 112.4742960   5.4998810  68.4266670
 112.4371880   5.7641070  69.9168650 112.7699880  12.0409510  74.2361390
 111.8728410  12.2649480  74.4834790 112.7952750  12.1644450  73.2872790
 111.5971100   8.9122830  72.8118760 111.4578870   9.7845630  73.1806160
 110.7152460   8.5695640  72.6666700 113.3951450  14.8544530  75.0203910
 113.3666880  15.2587480  74.1532340 113.2316420  13.9254890  74.8575510
 109.9104380   7.5105240  62.9221030 109.7901980   8.2367330  62.3102300
 109.6005270   6.7408150  62.4448940 107.5489750  10.6820380  68.7289670
 107.6270170  10.8169150  67.7845390 108.1631430   9.9736270  68.9217790
 108.7937380  12.3820570  65.1395850 108.3865460  12.5235160  64.2849450
 109.6850390  12.0980730  64.9367060 113.0659040  16.5966350  63.2518520
 112.8901520  15.6801890  63.0386320 112.2114780  16.9553640  63.4916320
 107.6049270  11.7234550  71.2684130 107.7680310  11.2539910  70.4503500
 108.0701720  11.2158110  71.9332970 116.6637850   3.7208830  71.9080020
 116.2017220   3.9291850  72.7199960 116.2615960   2.9068180  71.6050690
 112.1682260   5.9773880  64.0325950 111.9423180   5.7611050  64.9372570
 111.3874790   6.4102340  63.6871920 114.6081470   6.8759460  74.6986220
 114.5125070   5.9354190  74.5486620 115.4513450   7.0974530  74.3034290
 109.7392010   3.2873130  72.8520000 109.3455400   4.1348340  73.0592780
 109.0510410   2.6499500  73.0428640 107.2279290   5.1521710  58.0952800
 107.1453960   6.0952470  58.2367790 106.8762350   5.0096620  57.2165150
 115.0277420   3.8860740  67.1623150 115.0313480   3.4450690  66.3127690
 115.9228540   4.2078070  67.2694970 110.8779800   3.7687230  66.1217360
 110.5379850   4.2462460  66.8784410 110.1157120   3.3152350  65.7618460
 115.0897570   4.8872820  60.1529910 115.2110390   4.8459300  61.1015730
 114.7046080   5.7496970  59.9976640 114.1019070   7.1973960  59.5513210
 113.5335970   6.7492210  58.9249120 114.8108070   7.5566740  59.0178360
 109.1788250  11.0985980  73.4279940 108.7943040  10.4579650  74.0262900
 109.4900440  11.8022100  73.9974670 115.3285390   7.9462520  68.9088560
 115.6955520   7.4721090  69.6549900 115.1390450   8.8204090  69.2496900
 108.1925880   2.6906210  65.0382030 107.9072800   2.3261880  65.8760650
 108.1304740   1.9586670  64.4245170 113.1184760   6.9871160  71.2272770
 112.8141830   7.8663140  71.4523130 114.0731220   7.0470950  71.2630210
 111.6466550  11.1932150  61.8239620 110.8728810  10.6529770  61.6638340
 112.3761180  10.6738760  61.4857380 117.7873330  10.2606570  73.5035010
 117.7210640   9.3402240  73.2492600 117.1578470  10.3582010  74.2179650
 111.6903950  10.8612530  65.4618430 112.2082620  10.0580790  65.4075320
 111.2387970  10.7991670  66.3035260 116.5773450  12.1278810  60.7345730
 116.9189150  12.8721040  60.2389050 115.7486160  12.4409930  61.0970560
 109.1748490   7.8273900  72.3744130 108.8163430   8.4927750  72.9617470
 108.8803050   6.9957450  72.7456750 112.3761610   8.2858140  75.2583680
 112.0761750   8.4315320  74.3611500 113.1472850   7.7263430  75.1657070
 117.7190060  13.0827140  73.2538810 117.7334600  12.1508100  73.0357720
 117.0115160  13.1686900  73.8928580 115.5464140  12.2092340  63.5061650
 116.2335270  12.7561550  63.8869240 114.7596560  12.7533070  63.5411260
 107.6856540   7.8265160  58.9978730 108.5551390   8.1089960  59.2814650
 107.1946860   8.6401030  58.8827540 114.8491350   9.2138370  63.1187010
 115.3054130  10.0243620  63.3447200 114.4979560   8.8961510  63.9505500
 117.1523960  14.7244710  70.3479310 117.7966180  14.9304090  71.0252730
 117.5153400  13.9633110  69.8950160 108.0527790  17.0392540  59.5640360
 108.4125430  17.6381880  58.9097630 107.9120130  17.5852430  60.3375390
 108.0369650  15.3047400  74.0382760 108.1460770  14.3642140  73.8978150
 107.3850210  15.5702150  73.3896490 116.0282240  13.5763290  75.4380880
 115.7079110  12.8572530  75.9826570 115.3540600  14.2518360  75.5116940
 114.0696410  14.4223740  60.3814030 114.0606510  15.1553430  59.7658540
 113.1494770  14.1755320  60.4740990 109.6703050   9.6438630  61.1260790
 109.0631000  10.3837530  61.1356090 110.1452400   9.7337990  60.2998990
 117.0556010  14.4851980  59.0439220 117.1567990  14.2815970  58.1141200
 116.1557750  14.2310260  59.2487000 114.5781900   5.0432340  63.0263120
 113.8698050   5.5118680  63.4676730 114.8626380   4.3854350  63.6608310
 116.2037830   6.4629040  71.0255650 116.7023080   6.9374860  71.6907500
 116.3460780   5.5392560  71.2325680 115.6974120  17.0038300  63.7386890
 115.9515620  16.9659690  62.8166260 114.7486600  16.8771630  63.7315140
 112.7816920   3.3517420  60.4013830 113.6307450   3.7887570  60.3354020
 112.4148190   3.6637680  61.2285890 111.6808340   9.6049780  58.8749360
 112.4471610   9.4931140  59.4374790 111.7583030   8.9087750  58.2226130
 110.3755100   7.0374850  59.5582250 110.4558690   6.0902360  59.6699650
 111.2674850   7.3681730  59.6642910 111.1769810  17.1870240  66.6616790
 111.9132290  16.6385700  66.9325360 111.5610730  18.0526250  66.5222780
 108.0615290  13.2543810  62.5358300 107.1355070  13.4964950  62.5263710
 108.5271720  14.0818070  62.4143050 114.2872120  16.3600550  58.4842360
 115.0800730  16.6489380  58.0324150 113.7676470  15.9292720  57.8054840
 107.9025900   8.8589770  74.7938420 108.4064920   8.2797050  75.3654650
 107.1633320   9.1430000  75.3314790 114.8049520  11.5803960  58.3484710
 114.7000160  10.9656310  59.0746090 114.6373740  11.0569850  57.5647720
 114.9563840  10.2660760  74.3273940 114.1909510  10.8345760  74.2428610
 115.1379800   9.9736970  73.4342170 113.7127370   9.6014910  60.8492000
 114.1343790   9.4354780  61.6923390 113.8378210   8.7915140  60.3547140
 111.8754790   5.5811460  73.6562980 111.3451250   5.0902410  73.0286320
 112.5442860   6.0095660  73.1220910 116.2255010   8.6252520  58.0969100
 116.7460670   7.9101540  57.7310250 116.8723410   9.2638390  58.3969610
 112.3627090   2.5473830  73.7360270 112.2683960   1.9294580  73.0111140
 111.7824480   3.2740120  73.5090180 115.5348080  10.0001400  71.3900100
 115.9536190  10.8434130  71.2176340 114.6156710  10.1373440  71.1606880
 112.6086270   5.6748140  57.7950160 112.4075330   4.8115500  58.1563500
 112.4378320   5.5881500  56.8571760 113.3855500  16.3054410  72.5057830
 112.8476590  17.0300470  72.1866530 113.6389460  15.8284750  71.7155170
 114.6380750   4.2738930  74.0313760 115.2280440   3.9654780  74.7191580
 113.8200990   3.8018680  74.1873660 111.4069070   2.7748760  57.7828040
 111.7094970   2.7816190  56.8747190 112.1463660   2.4246620  58.2795700
 116.2417710  17.5405620  72.7644480 116.1676410  18.4440760  73.0716850
 115.3396550  17.2217520  72.7366550 116.7903040  16.7064130  60.3870840
 117.6853830  17.0449100  60.4089600 116.8220670  15.9843540  59.7595120
 110.4299200  12.0791180  58.6157840 110.8674070  12.6220850  59.2715420
 110.9146930  11.2538130  58.6254180 107.6445000  14.8680210  66.0678100
 107.9748010  14.0001270  65.8356740 108.0736000  15.0738730  66.8983060
 112.2406920  13.1989220  63.7280070 111.9402460  13.0754190  64.6283980
 112.1344410  12.3397810  63.3195800 108.1335210  15.7350800  68.8059730
 107.6966200  15.9151600  69.6383880 108.7012890  16.4925420  68.6641450
 107.9659640   8.2471030  65.1648610 107.3108480   7.9782670  64.5208310
 108.8037590   8.1375510  64.7150590 109.0035570   8.6323600  69.7051950
 109.3708610   8.5451000  70.5847970 108.4346390   7.8690150  69.6058810
 108.5551570   5.5432690  73.6110370 107.6607620   5.5099450  73.9504080
 109.0949120   5.7419480  74.3761620 107.1797720   5.4569960  61.1073940
 106.2761800   5.7200160  60.9325600 107.6638340   5.7281130  60.3273900
 109.7224930   4.5135500  59.0168320 110.4316630   4.0918720  58.5315600
 109.0064870   4.5810730  58.3851670 110.4187650  13.1456290  74.8672100
 110.3757280  12.7749200  75.7486560 110.5498660  14.0833860  75.0073920
 114.1193680  14.7015880  70.4681820 113.8785040  14.9690440  69.5812340
 115.0596320  14.8721610  70.5232680 110.2575680  16.0918540  71.9869880
 109.6636000  15.9603240  72.7259920 110.2499520  15.2556680  71.5211980
 109.8887910  13.4576920  70.9377920 109.1621970  12.8382210  70.8703870
 109.9497060  13.8517530  70.0676000 113.4933010  15.6721920  67.7227330
 114.0098030  15.0609280  67.1975590 114.1430390  16.1750700  68.2138340
 116.2328510  16.5630410  68.5496310 116.5206320  16.3084710  67.6729320
 116.7451730  16.0107770  69.1401880 108.1717910  16.7751310  64.1474680
 108.0039950  16.1421990  64.8456570 107.3052420  16.9810710  63.7968870
 115.3359740   2.7207360  64.6408850 114.5234250   2.3464250  64.3004730
 115.8401380   1.9652440  64.9430040 109.7780610  15.4684540  61.5924820
 109.2528230  15.8492570  60.8886780 109.7025190  16.0935310  62.3134530
 116.3000870  17.4846510  75.9164510 117.2268180  17.2490780  75.9600470
 116.2851300  18.3118510  75.4350540 112.3773580  17.4166920  60.4674070
 113.1092400  17.1326200  59.9197960 112.6367250  17.1780200  61.3573450
 111.5388370  13.5331650  60.4720400 110.9097250  14.0016750  61.0206230
 111.6536200  12.6880870  60.9066590 117.1256130   9.3616330  48.5030870
 116.3498230   8.8816770  48.7929440 117.7769060   8.6821980  48.3287030
 111.1421960   9.6736140  49.3806630 110.3106840   9.4184850  49.7803140
 111.7502940   9.7446910  50.1164550 111.1223220  13.7076230  49.5764650
 111.4251260  12.8173970  49.3974870 111.8666810  14.2646450  49.3486900
 109.5513910   4.6338030  43.1649020 108.6630610   4.9754000  43.0628900
 109.8355100   4.4338350  42.2729850 107.5146920   7.2343680  49.0488720
 108.0863030   6.4665880  49.0492360 107.5148460   7.5332440  48.1395330
 116.5665120  12.0373520  48.5101030 116.4973400  11.0963460  48.3490160
 117.3284980  12.1274930  49.0823600 108.7571790   2.6428040  50.8357650
 108.5774630   1.7453790  51.1160410 108.3551870   3.1899910  51.5104600
 117.5970290   4.8443900  48.7369960 117.9735110   3.9715780  48.6243630
 117.4989800   5.1802600  47.8460400 111.7275300   3.2169530  44.1987400
 111.8342050   4.1173260  44.5056160 110.8167660   3.1687500  43.9082050
 109.3758460   5.1388540  49.4439990 110.0568570   5.4026910  50.0627390
 109.0606510   4.2989410  49.7778000 113.5683030   6.1855900  48.5312580
 114.0761250   6.6836870  49.1717600 114.0996270   5.4091100  48.3551940
 113.1021980  10.4649640  50.9749500 112.7691360  11.0918560  51.6170570
 113.2788660  10.9911520  50.1951170 111.5334460   2.5364420  50.8046450
 111.8751270   3.3806470  50.5100320 110.5950270   2.6848160  50.9211790
 112.3141080  12.4330440  52.7898680 112.9315080  13.1081520  52.5083130
 111.4534200  12.8418420  52.6986180 107.6073420  11.6230300  41.6705530
 107.2301400  12.1117400  40.9390430 107.8646490  12.2955580  42.3012060
 117.6043110   8.0895520  43.8651160 116.6772390   8.0232900  44.0939630
 117.7567930   9.0275650  43.7506400 117.5912190   4.3612520  40.8618320
 116.6515860   4.5226480  40.9470780 117.9095450   5.0798200  40.3154310
 113.2099750   8.6160260  46.6470890 112.8056750   7.9037510  46.1516790
 113.2962870   8.2713500  47.5358930 113.6781450  12.3027820  48.8110100
 113.3809740  11.6973290  48.1317880 114.6281270  12.3405130  48.6999460
 111.9228370   5.3903470  50.4269930 112.4742960   5.4998810  49.6523180
 112.4371880   5.7641070  51.1425160 112.7699880  12.0409510  55.4617900
 111.8728410  12.2649480  55.7091300 112.7952750  12.1644450  54.5129300
 111.5971100   8.9122830  54.0375270 111.4578870   9.7845630  54.4062670
 110.7152460   8.5695640  53.8923210 113.3951450  14.8544530  56.2460420
 113.3666880  15.2587480  55.3788850 113.2316420  13.9254890  56.0832020
 109.9104380   7.5105240  44.1477540 109.7901980   8.2367330  43.5358810
 109.6005270   6.7408150  43.6705450 107.5489750  10.6820380  49.9546180
 107.6270170  10.8169150  49.0101900 108.1631430   9.9736270  50.1474300
 108.7937380  12.3820570  46.3652360 108.3865460  12.5235160  45.5105960
 109.6850390  12.0980730  46.1623570 113.0659040  16.5966350  44.4775030
 112.8901520  15.6801890  44.2642830 112.2114780  16.9553640  44.7172830
 107.6049270  11.7234550  52.4940640 107.7680310  11.2539910  51.6760010
 108.0701720  11.2158110  53.1589480 116.6637850   3.7208830  53.1336530
 116.2017220   3.9291850  53.9456470 116.2615960   2.9068180  52.8307200
 112.1682260   5.9773880  45.2582460 111.9423180   5.7611050  46.1629080
 111.3874790   6.4102340  44.9128430 114.6081470   6.8759460  55.9242730
 114.5125070   5.9354190  55.7743130 115.4513450   7.0974530  55.5290800
 109.7392010   3.2873130  54.0776510 109.3455400   4.1348340  54.2849290
 109.0510410   2.6499500  54.2685150 116.3137060   3.3708100  57.1473250
 115.6235380   3.1780300  57.7819340 117.0569360   3.6542740  57.6797550
 107.2279290   5.1521710  39.3209310 107.1453960   6.0952470  39.4624300
 106.8762350   5.0096620  38.4421660 115.0277420   3.8860740  48.3879660
 115.0313480   3.4450690  47.5384200 115.9228540   4.2078070  48.4951480
 110.8779800   3.7687230  47.3473870 110.5379850   4.2462460  48.1040920
 110.1157120   3.3152350  46.9874970 115.0897570   4.8872820  41.3786420
 115.2110390   4.8459300  42.3272240 114.7046080   5.7496970  41.2233150
 114.1019070   7.1973960  40.7769720 113.5335970   6.7492210  40.1505630
 114.8108070   7.5566740  40.2434870 109.1788250  11.0985980  54.6536450
 108.7943040  10.4579650  55.2519410 109.4900440  11.8022100  55.2231180
 115.3285390   7.9462520  50.1345070 115.6955520   7.4721090  50.8806410
 115.1390450   8.8204090  50.4753410 108.1925880   2.6906210  46.2638540
 107.9072800   2.3261880  47.1017160 108.1304740   1.9586670  45.6501680
 113.1184760   6.9871160  52.4529280 112.8141830   7.8663140  52.6779640
 114.0731220   7.0470950  52.4886720 111.6466550  11.1932150  43.0496130
 110.8728810  10.6529770  42.8894850 112.3761180  10.6738760  42.7113890
 117.7873330  10.2606570  54.7291520 117.7210640   9.3402240  54.4749110
 117.1578470  10.3582010  55.4436160 111.6903950  10.8612530  46.6874940
 112.2082620  10.0580790  46.6331830 111.2387970  10.7991670  47.5291770
 116.5773450  12.1278810  41.9602240 116.9189150  12.8721040  41.4645560
 115.7486160  12.4409930  42.3227070 109.1748490   7.8273900  53.6000640
 108.8163430   8.4927750  54.1873980 108.8803050   6.9957450  53.9713260
 112.3761610   8.2858140  56.4840190 112.0761750   8.4315320  55.5868010
 113.1472850   7.7263430  56.3913580 117.7190060  13.0827140  54.4795320
 117.7334600  12.1508100  54.2614230 117.0115160  13.1686900  55.1185090
 115.5464140  12.2092340  44.7318160 116.2335270  12.7561550  45.1125750
 114.7596560  12.7533070  44.7667770 107.6856540   7.8265160  40.2235240
 108.5551390   8.1089960  40.5071160 107.1946860   8.6401030  40.1084050
 114.8491350   9.2138370  44.3443520 115.3054130  10.0243620  44.5703710
 114.4979560   8.8961510  45.1762010 117.1523960  14.7244710  51.5735820
 117.7966180  14.9304090  52.2509240 117.5153400  13.9633110  51.1206670
 108.0527790  17.0392540  40.7896870 108.4125430  17.6381880  40.1354140
 107.9120130  17.5852430  41.5631900 108.0369650  15.3047400  55.2639270
 108.1460770  14.3642140  55.1234660 107.3850210  15.5702150  54.6153000
 116.0282240  13.5763290  56.6637390 115.7079110  12.8572530  57.2083080
 115.3540600  14.2518360  56.7373450 114.0696410  14.4223740  41.6070540
 114.0606510  15.1553430  40.9915050 113.1494770  14.1755320  41.6997500
 109.6703050   9.6438630  42.3517300 109.0631000  10.3837530  42.3612600
 110.1452400   9.7337990  41.5255500 117.0556010  14.4851980  40.2695730
 117.1567990  14.2815970  39.3397710 116.1557750  14.2310260  40.4743510
 114.5781900   5.0432340  44.2519630 113.8698050   5.5118680  44.6933240
 114.8626380   4.3854350  44.8864820 116.2037830   6.4629040  52.2512160
 116.7023080   6.9374860  52.9164010 116.3460780   5.5392560  52.4582190
 115.6974120  17.0038300  44.9643400 115.9515620  16.9659690  44.0422770
 114.7486600  16.8771630  44.9571650 112.7816920   3.3517420  41.6270340
 113.6307450   3.7887570  41.5610530 112.4148190   3.6637680  42.4542400
 111.6808340   9.6049780  40.1005870 112.4471610   9.4931140  40.6631300
 111.7583030   8.9087750  39.4482640 110.3755100   7.0374850  40.7838760
 110.4558690   6.0902360  40.8956160 111.2674850   7.3681730  40.8899420
 111.1769810  17.1870240  47.8873300 111.9132290  16.6385700  48.1581870
 111.5610730  18.0526250  47.7479290 108.0615290  13.2543810  43.7614810
 107.1355070  13.4964950  43.7520220 108.5271720  14.0818070  43.6399560
 110.1828090  16.3716310  57.0758880 110.9840820  16.6928360  57.4894280
 109.6679910  16.0111890  57.7978790 114.2872120  16.3600550  39.7098870
 115.0800730  16.6489380  39.2580660 113.7676470  15.9292720  39.0311350
 107.9025900   8.8589770  56.0194930 108.4064920   8.2797050  56.5911160
 107.1633320   9.1430000  56.5571300 114.8049520  11.5803960  39.5741220
 114.7000160  10.9656310  40.3002600 114.6373740  11.0569850  38.7904230
 114.9563840  10.2660760  55.5530450 114.1909510  10.8345760  55.4685120
 115.1379800   9.9736970  54.6598680 109.9348980   7.0019360  56.9145000
 109.9754320   6.7033230  57.8230230 110.7894480   7.4026970  56.7552520
 113.7127370   9.6014910  42.0748510 114.1343790   9.4354780  42.9179900
 113.8378210   8.7915140  41.5803650 111.8754790   5.5811460  54.8819490
 111.3451250   5.0902410  54.2542830 112.5442860   6.0095660  54.3477420
 116.2255010   8.6252520  39.3225610 116.7460670   7.9101540  38.9566760
 116.8723410   9.2638390  39.6226120 112.3627090   2.5473830  54.9616780
 112.2683960   1.9294580  54.2367650 111.7824480   3.2740120  54.7346690
 115.5348080  10.0001400  52.6156610 115.9536190  10.8434130  52.4432850
 114.6156710  10.1373440  52.3863390 112.6086270   5.6748140  39.0206670
 112.4075330   4.8115500  39.3820010 112.4378320   5.5881500  38.0828270
 113.3855500  16.3054410  53.7314340 112.8476590  17.0300470  53.4123040
 113.6389460  15.8284750  52.9411680 114.6380750   4.2738930  55.2570270
 115.2280440   3.9654780  55.9448090 113.8200990   3.8018680  55.4130170
 111.4069070   2.7748760  39.0084550 111.7094970   2.7816190  38.1003700
 112.1463660   2.4246620  39.5052210 116.2417710  17.5405620  53.9900990
 116.1676410  18.4440760  54.2973360 115.3396550  17.2217520  53.9623060
 116.7903040  16.7064130  41.6127350 117.6853830  17.0449100  41.6346110
 116.8220670  15.9843540  40.9851630 110.4299200  12.0791180  39.8414350
 110.8674070  12.6220850  40.4971930 110.9146930  11.2538130  39.8510690
 107.6445000  14.8680210  47.2934610 107.9748010  14.0001270  47.0613250
 108.0736000  15.0738730  48.1239570 112.2406920  13.1989220  44.9536580
 111.9402460  13.0754190  45.8540490 112.1344410  12.3397810  44.5452310
 108.1335210  15.7350800  50.0316240 107.6966200  15.9151600  50.8640390
 108.7012890  16.4925420  49.8897960 107.9659640   8.2471030  46.3905120
 107.3108480   7.9782670  45.7464820 108.8037590   8.1375510  45.9407100
 109.0035570   8.6323600  50.9308460 109.3708610   8.5451000  51.8104480
 108.4346390   7.8690150  50.8315320 108.5551570   5.5432690  54.8366880
 107.6607620   5.5099450  55.1760590 109.0949120   5.7419480  55.6018130
 107.1797720   5.4569960  42.3330450 106.2761800   5.7200160  42.1582110
 107.6638340   5.7281130  41.5530410 109.7224930   4.5135500  40.2424830
 110.4316630   4.0918720  39.7572110 109.0064870   4.5810730  39.6108180
 110.4187650  13.1456290  56.0928610 110.3757280  12.7749200  56.9743070
 110.5498660  14.0833860  56.2330430 114.1193680  14.7015880  51.6938330
 113.8785040  14.9690440  50.8068850 115.0596320  14.8721610  51.7489190
 110.2575680  16.0918540  53.2126390 109.6636000  15.9603240  53.9516430
 110.2499520  15.2556680  52.7468490 109.8887910  13.4576920  52.1634430
 109.1621970  12.8382210  52.0960380 109.9497060  13.8517530  51.2932510
 113.4933010  15.6721920  48.9483840 114.0098030  15.0609280  48.4232100
 114.1430390  16.1750700  49.4394850 116.2328510  16.5630410  49.7752820
 116.5206320  16.3084710  48.8985830 116.7451730  16.0107770  50.3658390
 108.1717910  16.7751310  45.3731190 108.0039950  16.1421990  46.0713080
 107.3052420  16.9810710  45.0225380 115.3359740   2.7207360  45.8665360
 114.5234250   2.3464250  45.5261240 115.8401380   1.9652440  46.1686550
 109.7780610  15.4684540  42.8181330 109.2528230  15.8492570  42.1143290
 109.7025190  16.0935310  43.5391040 116.3000870  17.4846510  57.1421020
 117.2268180  17.2490780  57.1856980 116.2851300  18.3118510  56.6607050
 112.3773580  17.4166920  41.6930580 113.1092400  17.1326200  41.1454470
 112.6367250  17.1780200  42.5829960 111.5388370  13.5331650  41.6976910
 110.9097250  14.0016750  42.2462740 111.6536200  12.6880870  42.1323100
 117.1256130   9.3616330  29.7287380 116.3498230   8.8816770  30.0185950
 117.7769060   8.6821980  29.5543540 111.1421960   9.6736140  30.6063140
 110.3106840   9.4184850  31.0059650 111.7502940   9.7446910  31.3421060
 111.1223220  13.7076230  30.8021160 111.4251260  12.8173970  30.6231380
 111.8666810  14.2646450  30.5743410 109.5513910   4.6338030  24.3905530
 108.6630610   4.9754000  24.2885410 109.8355100   4.4338350  23.4986360
 107.5146920   7.2343680  30.2745230 108.0863030   6.4665880  30.2748870
 107.5148460   7.5332440  29.3651840 116.5665120  12.0373520  29.7357540
 116.4973400  11.0963460  29.5746670 117.3284980  12.1274930  30.3080110
 108.7571790   2.6428040  32.0614160 108.5774630   1.7453790  32.3416920
 108.3551870   3.1899910  32.7361110 117.5970290   4.8443900  29.9626470
 117.9735110   3.9715780  29.8500140 117.4989800   5.1802600  29.0716910
 111.7275300   3.2169530  25.4243910 111.8342050   4.1173260  25.7312670
 110.8167660   3.1687500  25.1338560 109.3758460   5.1388540  30.6696500
 110.0568570   5.4026910  31.2883900 109.0606510   4.2989410  31.0034510
 113.5683030   6.1855900  29.7569090 114.0761250   6.6836870  30.3974110
 114.0996270   5.4091100  29.5808450 113.1021980  10.4649640  32.2006010
 112.7691360  11.0918560  32.8427080 113.2788660  10.9911520  31.4207680
 111.5334460   2.5364420  32.0302960 111.8751270   3.3806470  31.7356830
 110.5950270   2.6848160  32.1468300 112.3141080  12.4330440  34.0155190
 112.9315080  13.1081520  33.7339640 111.4534200  12.8418420  33.9242690
 107.6073420  11.6230300  22.8962040 107.2301400  12.1117400  22.1646940
 107.8646490  12.2955580  23.5268570 117.6043110   8.0895520  25.0907670
 116.6772390   8.0232900  25.3196140 117.7567930   9.0275650  24.9762910
 117.5912190   4.3612520  22.0874830 116.6515860   4.5226480  22.1727290
 117.9095450   5.0798200  21.5410820 113.2099750   8.6160260  27.8727400
 112.8056750   7.9037510  27.3773300 113.2962870   8.2713500  28.7615440
 113.6781450  12.3027820  30.0366610 113.3809740  11.6973290  29.3574390
 114.6281270  12.3405130  29.9255970 111.9228370   5.3903470  31.6526440
 112.4742960   5.4998810  30.8779690 112.4371880   5.7641070  32.3681670
 112.7699880  12.0409510  36.6874410 111.8728410  12.2649480  36.9347810
 112.7952750  12.1644450  35.7385810 111.5971100   8.9122830  35.2631780
 111.4578870   9.7845630  35.6319180 110.7152460   8.5695640  35.1179720
 113.3951450  14.8544530  37.4716930 113.3666880  15.2587480  36.6045360
 113.2316420  13.9254890  37.3088530 109.9104380   7.5105240  25.3734050
 109.7901980   8.2367330  24.7615320 109.6005270   6.7408150  24.8961960
 107.5489750  10.6820380  31.1802690 107.6270170  10.8169150  30.2358410
 108.1631430   9.9736270  31.3730810 108.7937380  12.3820570  27.5908870
 108.3865460  12.5235160  26.7362470 109.6850390  12.0980730  27.3880080
 113.0659040  16.5966350  25.7031540 112.8901520  15.6801890  25.4899340
 112.2114780  16.9553640  25.9429340 107.6049270  11.7234550  33.7197150
 107.7680310  11.2539910  32.9016520 108.0701720  11.2158110  34.3845990
 116.6637850   3.7208830  34.3593040 116.2017220   3.9291850  35.1712980
 116.2615960   2.9068180  34.0563710 112.1682260   5.9773880  26.4838970
 111.9423180   5.7611050  27.3885590 111.3874790   6.4102340  26.1384940
 114.6081470   6.8759460  37.1499240 114.5125070   5.9354190  36.9999640
 115.4513450   7.0974530  36.7547310 109.7392010   3.2873130  35.3033020
 109.3455400   4.1348340  35.5105800 109.0510410   2.6499500  35.4941660
 116.3137060   3.3708100  38.3729760 115.6235380   3.1780300  39.0075850
 117.0569360   3.6542740  38.9054060 107.2279290   5.1521710  20.5465820
 107.1453960   6.0952470  20.6880810 106.8762350   5.0096620  19.6678170
 115.0277420   3.8860740  29.6136170 115.0313480   3.4450690  28.7640710
 115.9228540   4.2078070  29.7207990 110.8779800   3.7687230  28.5730380
 110.5379850   4.2462460  29.3297430 110.1157120   3.3152350  28.2131480
 115.0897570   4.8872820  22.6042930 115.2110390   4.8459300  23.5528750
 114.7046080   5.7496970  22.4489660 114.1019070   7.1973960  22.0026230
 113.5335970   6.7492210  21.3762140 114.8108070   7.5566740  21.4691380
 109.1788250  11.0985980  35.8792960 108.7943040  10.4579650  36.4775920
 109.4900440  11.8022100  36.4487690 115.3285390   7.9462520  31.3601580
 115.6955520   7.4721090  32.1062920 115.1390450   8.8204090  31.7009920
 108.1925880   2.6906210  27.4895050 107.9072800   2.3261880  28.3273670
 108.1304740   1.9586670  26.8758190 113.1184760   6.9871160  33.6785790
 112.8141830   7.8663140  33.9036150 114.0731220   7.0470950  33.7143230
 111.6466550  11.1932150  24.2752640 110.8728810  10.6529770  24.1151360
 112.3761180  10.6738760  23.9370400 117.7873330  10.2606570  35.9548030
 117.7210640   9.3402240  35.7005620 117.1578470  10.3582010  36.6692670
 111.6903950  10.8612530  27.9131450 112.2082620  10.0580790  27.8588340
 111.2387970  10.7991670  28.7548280 116.5773450  12.1278810  23.1858750
 116.9189150  12.8721040  22.6902070 115.7486160  12.4409930  23.5483580
 109.1748490   7.8273900  34.8257150 108.8163430   8.4927750  35.4130490
 108.8803050   6.9957450  35.1969770 112.3761610   8.2858140  37.7096700
 112.0761750   8.4315320  36.8124520 113.1472850   7.7263430  37.6170090
 117.7190060  13.0827140  35.7051830 117.7334600  12.1508100  35.4870740
 117.0115160  13.1686900  36.3441600 115.5464140  12.2092340  25.9574670
 116.2335270  12.7561550  26.3382260 114.7596560  12.7533070  25.9924280
 107.6856540   7.8265160  21.4491750 108.5551390   8.1089960  21.7327670
 107.1946860   8.6401030  21.3340560 114.8491350   9.2138370  25.5700030
 115.3054130  10.0243620  25.7960220 114.4979560   8.8961510  26.4018520
 117.1523960  14.7244710  32.7992330 117.7966180  14.9304090  33.4765750
 117.5153400  13.9633110  32.3463180 108.0527790  17.0392540  22.0153380
 108.4125430  17.6381880  21.3610650 107.9120130  17.5852430  22.7888410
 108.0369650  15.3047400  36.4895780 108.1460770  14.3642140  36.3491170
 107.3850210  15.5702150  35.8409510 116.0282240  13.5763290  37.8893900
 115.7079110  12.8572530  38.4339590 115.3540600  14.2518360  37.9629960
 114.0696410  14.4223740  22.8327050 114.0606510  15.1553430  22.2171560
 113.1494770  14.1755320  22.9254010 109.6703050   9.6438630  23.5773810
 109.0631000  10.3837530  23.5869110 110.1452400   9.7337990  22.7512010
 117.0556010  14.4851980  21.4952240 117.1567990  14.2815970  20.5654220
 116.1557750  14.2310260  21.7000020 114.5781900   5.0432340  25.4776140
 113.8698050   5.5118680  25.9189750 114.8626380   4.3854350  26.1121330
 116.2037830   6.4629040  33.4768670 116.7023080   6.9374860  34.1420520
 116.3460780   5.5392560  33.6838700 115.6974120  17.0038300  26.1899910
 115.9515620  16.9659690  25.2679280 114.7486600  16.8771630  26.1828160
 112.7816920   3.3517420  22.8526850 113.6307450   3.7887570  22.7867040
 112.4148190   3.6637680  23.6798910 111.6808340   9.6049780  21.3262380
 112.4471610   9.4931140  21.8887810 111.7583030   8.9087750  20.6739150
 110.3755100   7.0374850  22.0095270 110.4558690   6.0902360  22.1212670
 111.2674850   7.3681730  22.1155930 111.1769810  17.1870240  29.1129810
 111.9132290  16.6385700  29.3838380 111.5610730  18.0526250  28.9735800
 108.0615290  13.2543810  24.9871320 107.1355070  13.4964950  24.9776730
 108.5271720  14.0818070  24.8656070 110.1828090  16.3716310  38.3015390
 110.9840820  16.6928360  38.7150790 109.6679910  16.0111890  39.0235300
 114.2872120  16.3600550  20.9355380 115.0800730  16.6489380  20.4837170
 113.7676470  15.9292720  20.2567860 107.9025900   8.8589770  37.2451440
 108.4064920   8.2797050  37.8167670 107.1633320   9.1430000  37.7827810
 114.8049520  11.5803960  20.7997730 114.7000160  10.9656310  21.5259110
 114.6373740  11.0569850  20.0160740 114.9563840  10.2660760  36.7786960
 114.1909510  10.8345760  36.6941630 115.1379800   9.9736970  35.8855190
 109.9348980   7.0019360  38.1401510 109.9754320   6.7033230  39.0486740
 110.7894480   7.4026970  37.9809030 113.7127370   9.6014910  23.3005020
 114.1343790   9.4354780  24.1436410 113.8378210   8.7915140  22.8060160
 111.8754790   5.5811460  36.1076000 111.3451250   5.0902410  35.4799340
 112.5442860   6.0095660  35.5733930 116.2255010   8.6252520  20.5482120
 116.7460670   7.9101540  20.1823270 116.8723410   9.2638390  20.8482630
 112.3627090   2.5473830  36.1873290 112.2683960   1.9294580  35.4624160
 111.7824480   3.2740120  35.9603200 115.5348080  10.0001400  33.8413120
 115.9536190  10.8434130  33.6689360 114.6156710  10.1373440  33.6119900
 112.6086270   5.6748140  20.2463180 112.4075330   4.8115500  20.6076520
 112.4378320   5.5881500  19.3084780 113.3855500  16.3054410  34.9570850
 112.8476590  17.0300470  34.6379550 113.6389460  15.8284750  34.1668190
 114.6380750   4.2738930  36.4826780 115.2280440   3.9654780  37.1704600
 113.8200990   3.8018680  36.6386680 111.4069070   2.7748760  20.2341060
 111.7094970   2.7816190  19.3260210 112.1463660   2.4246620  20.7308720
 116.2417710  17.5405620  35.2157500 116.1676410  18.4440760  35.5229870
 115.3396550  17.2217520  35.1879570 116.7903040  16.7064130  22.8383860
 117.6853830  17.0449100  22.8602620 116.8220670  15.9843540  22.2108140
 110.4299200  12.0791180  21.0670860 110.8674070  12.6220850  21.7228440
 110.9146930  11.2538130  21.0767200 107.6445000  14.8680210  28.5191120
 107.9748010  14.0001270  28.2869760 108.0736000  15.0738730  29.3496080
 112.2406920  13.1989220  26.1793090 111.9402460  13.0754190  27.0797000
 112.1344410  12.3397810  25.7708820 108.1335210  15.7350800  31.2572750
 107.6966200  15.9151600  32.0896900 108.7012890  16.4925420  31.1154470
 107.9659640   8.2471030  27.6161630 107.3108480   7.9782670  26.9721330
 108.8037590   8.1375510  27.1663610 109.0035570   8.6323600  32.1564970
 109.3708610   8.5451000  33.0360990 108.4346390   7.8690150  32.0571830
 108.5551570   5.5432690  36.0623390 107.6607620   5.5099450  36.4017100
 109.0949120   5.7419480  36.8274640 107.1797720   5.4569960  23.5586960
 106.2761800   5.7200160  23.3838620 107.6638340   5.7281130  22.7786920
 109.7224930   4.5135500  21.4681340 110.4316630   4.0918720  20.9828620
 109.0064870   4.5810730  20.8364690 110.4187650  13.1456290  37.3185120
 110.3757280  12.7749200  38.1999580 110.5498660  14.0833860  37.4586940
 114.1193680  14.7015880  32.9194840 113.8785040  14.9690440  32.0325360
 115.0596320  14.8721610  32.9745700 110.2575680  16.0918540  34.4382900
 109.6636000  15.9603240  35.1772940 110.2499520  15.2556680  33.9725000
 109.8887910  13.4576920  33.3890940 109.1621970  12.8382210  33.3216890
 109.9497060  13.8517530  32.5189020 113.4933010  15.6721920  30.1740350
 114.0098030  15.0609280  29.6488610 114.1430390  16.1750700  30.6651360
 116.2328510  16.5630410  31.0009330 116.5206320  16.3084710  30.1242340
 116.7451730  16.0107770  31.5914900 108.1717910  16.7751310  26.5987700
 108.0039950  16.1421990  27.2969590 107.3052420  16.9810710  26.2481890
 115.3359740   2.7207360  27.0921870 114.5234250   2.3464250  26.7517750
 115.8401380   1.9652440  27.3943060 109.7780610  15.4684540  24.0437840
 109.2528230  15.8492570  23.3399800 109.7025190  16.0935310  24.7647550
 116.3000870  17.4846510  38.3677530 117.2268180  17.2490780  38.4113490
 116.2851300  18.3118510  37.8863560 112.3773580  17.4166920  22.9187090
 113.1092400  17.1326200  22.3710980 112.6367250  17.1780200  23.8086470
 111.5388370  13.5331650  22.9233420 110.9097250  14.0016750  23.4719250
 111.6536200  12.6880870  23.3579610 117.1256130   9.3616330  10.9543890
 116.3498230   8.8816770  11.2442460 117.7769060   8.6821980  10.7800050
 111.1421960   9.6736140  11.8319650 110.3106840   9.4184850  12.2316160
 111.7502940   9.7446910  12.5677570 111.1223220  13.7076230  12.0277670
 111.4251260  12.8173970  11.8487890 111.8666810  14.2646450  11.7999920
 109.5513910   4.6338030   5.6162040 108.6630610   4.9754000   5.5141920
 109.8355100   4.4338350   4.7242870 107.5146920   7.2343680  11.5001740
 108.0863030   6.4665880  11.5005380 107.5148460   7.5332440  10.5908350
 116.5665120  12.0373520  10.9614050 116.4973400  11.0963460  10.8003180
 117.3284980  12.1274930  11.5336620 108.7571790   2.6428040  13.2870670
 108.5774630   1.7453790  13.5673430 108.3551870   3.1899910  13.9617620
 117.5970290   4.8443900  11.1882980 117.9735110   3.9715780  11.0756650
 117.4989800   5.1802600  10.2973420 111.7275300   3.2169530   6.6500420
 111.8342050   4.1173260   6.9569180 110.8167660   3.1687500   6.3595070
 109.3758460   5.1388540  11.8953010 110.0568570   5.4026910  12.5140410
 109.0606510   4.2989410  12.2291020 113.5683030   6.1855900  10.9825600
 114.0761250   6.6836870  11.6230620 114.0996270   5.4091100  10.8064960
 113.1021980  10.4649640  13.4262520 112.7691360  11.0918560  14.0683590
 113.2788660  10.9911520  12.6464190 111.5334460   2.5364420  13.2559470
 111.8751270   3.3806470  12.9613340 110.5950270   2.6848160  13.3724810
 112.3141080  12.4330440  15.2411700 112.9315080  13.1081520  14.9596150
 111.4534200  12.8418420  15.1499200 107.6073420  11.6230300   4.1218550
 107.2301400  12.1117400   3.3903450 107.8646490  12.2955580   4.7525080
 117.6043110   8.0895520   6.3164180 116.6772390   8.0232900   6.5452650
 117.7567930   9.0275650   6.2019420 117.5912190   4.3612520   3.3131340
 116.6515860   4.5226480   3.3983800 117.9095450   5.0798200   2.7667330
 113.2099750   8.6160260   9.0983910 112.8056750   7.9037510   8.6029810
 113.2962870   8.2713500   9.9871950 113.6781450  12.3027820  11.2623120
 113.3809740  11.6973290  10.5830900 114.6281270  12.3405130  11.1512480
 111.9228370   5.3903470  12.8782950 112.4742960   5.4998810  12.1036200
 112.4371880   5.7641070  13.5938180 112.7699880  12.0409510  17.9130920
 111.8728410  12.2649480  18.1604320 112.7952750  12.1644450  16.9642320
 111.5971100   8.9122830  16.4888290 111.4578870   9.7845630  16.8575690
 110.7152460   8.5695640  16.3436230 113.3951450  14.8544530  18.6973440
 113.3666880  15.2587480  17.8301870 113.2316420  13.9254890  18.5345040
 109.9104380   7.5105240   6.5990560 109.7901980   8.2367330   5.9871830
 109.6005270   6.7408150   6.1218470 107.5489750  10.6820380  12.4059200
 107.6270170  10.8169150  11.4614920 108.1631430   9.9736270  12.5987320
 108.7937380  12.3820570   8.8165380 108.3865460  12.5235160   7.9618980
 109.6850390  12.0980730   8.6136590 113.0659040  16.5966350   6.9288050
 112.8901520  15.6801890   6.7155850 112.2114780  16.9553640   7.1685850
 107.6049270  11.7234550  14.9453660 107.7680310  11.2539910  14.1273030
 108.0701720  11.2158110  15.6102500 116.6637850   3.7208830  15.5849550
 116.2017220   3.9291850  16.3969490 116.2615960   2.9068180  15.2820220
 112.1682260   5.9773880   7.7095480 111.9423180   5.7611050   8.6142100
 111.3874790   6.4102340   7.3641450 114.6081470   6.8759460  18.3755750
 114.5125070   5.9354190  18.2256150 115.4513450   7.0974530  17.9803820
 109.7392010   3.2873130  16.5289530 109.3455400   4.1348340  16.7362310
 109.0510410   2.6499500  16.7198170 116.3137060   3.3708100  19.5986270
 115.6235380   3.1780300  20.2332360 117.0569360   3.6542740  20.1310570
 115.0277420   3.8860740  10.8392680 115.0313480   3.4450690   9.9897220
 115.9228540   4.2078070  10.9464500 110.8779800   3.7687230   9.7986890
 110.5379850   4.2462460  10.5553940 110.1157120   3.3152350   9.4387990
 115.0897570   4.8872820   3.8299440 115.2110390   4.8459300   4.7785260
 114.7046080   5.7496970   3.6746170 114.1019070   7.1973960   3.2282740
 113.5335970   6.7492210   2.6018650 114.8108070   7.5566740   2.6947890
 109.1788250  11.0985980  17.1049470 108.7943040  10.4579650  17.7032430
 109.4900440  11.8022100  17.6744200 115.3285390   7.9462520  12.5858090
 115.6955520   7.4721090  13.3319430 115.1390450   8.8204090  12.9266430
 108.1925880   2.6906210   8.7151560 107.9072800   2.3261880   9.5530180
 108.1304740   1.9586670   8.1014700 113.1184760   6.9871160  14.9042300
 112.8141830   7.8663140  15.1292660 114.0731220   7.0470950  14.9399740
 111.6466550  11.1932150   5.5009150 110.8728810  10.6529770   5.3407870
 112.3761180  10.6738760   5.1626910 117.7873330  10.2606570  17.1804540
 117.7210640   9.3402240  16.9262130 117.1578470  10.3582010  17.8949180
 111.6903950  10.8612530   9.1387960 112.2082620  10.0580790   9.0844850
 111.2387970  10.7991670   9.9804790 116.5773450  12.1278810   4.4115260
 116.9189150  12.8721040   3.9158580 115.7486160  12.4409930   4.7740090
 109.1748490   7.8273900  16.0513660 108.8163430   8.4927750  16.6387000
 108.8803050   6.9957450  16.4226280 112.3761610   8.2858140  18.9353210
 112.0761750   8.4315320  18.0381030 113.1472850   7.7263430  18.8426600
 117.7190060  13.0827140  16.9308340 117.7334600  12.1508100  16.7127250
 117.0115160  13.1686900  17.5698110 115.5464140  12.2092340   7.1831180
 116.2335270  12.7561550   7.5638770 114.7596560  12.7533070   7.2180790
 107.6856540   7.8265160   2.6748260 108.5551390   8.1089960   2.9584180
 107.1946860   8.6401030   2.5597070 114.8491350   9.2138370   6.7956540
 115.3054130  10.0243620   7.0216730 114.4979560   8.8961510   7.6275030
 117.1523960  14.7244710  14.0248840 117.7966180  14.9304090  14.7022260
 117.5153400  13.9633110  13.5719690 108.0527790  17.0392540   3.2409890
 108.4125430  17.6381880   2.5867160 107.9120130  17.5852430   4.0144920
 108.0369650  15.3047400  17.7152290 108.1460770  14.3642140  17.5747680
 107.3850210  15.5702150  17.0666020 116.0282240  13.5763290  19.1150410
 115.7079110  12.8572530  19.6596100 115.3540600  14.2518360  19.1886470
 114.0696410  14.4223740   4.0583560 114.0606510  15.1553430   3.4428070
 113.1494770  14.1755320   4.1510520 109.6703050   9.6438630   4.8030320
 109.0631000  10.3837530   4.8125620 110.1452400   9.7337990   3.9768520
 117.0556010  14.4851980   2.7208750 117.1567990  14.2815970   1.7910730
 116.1557750  14.2310260   2.9256530 114.5781900   5.0432340   6.7032650
 113.8698050   5.5118680   7.1446260 114.8626380   4.3854350   7.3377840
 116.2037830   6.4629040  14.7025180 116.7023080   6.9374860  15.3677030
 116.3460780   5.5392560  14.9095210 115.6974120  17.0038300   7.4156420
 115.9515620  16.9659690   6.4935790 114.7486600  16.8771630   7.4084670
 112.7816920   3.3517420   4.0783360 113.6307450   3.7887570   4.0123550
 112.4148190   3.6637680   4.9055420 111.6808340   9.6049780   2.5518890
 112.4471610   9.4931140   3.1144320 111.7583030   8.9087750   1.8995660
 110.3755100   7.0374850   3.2351780 110.4558690   6.0902360   3.3469180
 111.2674850   7.3681730   3.3412440 111.1769810  17.1870240  10.3386320
 111.9132290  16.6385700  10.6094890 111.5610730  18.0526250  10.1992310
 108.0615290  13.2543810   6.2127830 107.1355070  13.4964950   6.2033240
 108.5271720  14.0818070   6.0912580 110.1828090  16.3716310  19.5271900
 110.9840820  16.6928360  19.9407300 109.6679910  16.0111890  20.2491810
 114.2872120  16.3600550   2.1611890 115.0800730  16.6489380   1.7093680
 113.7676470  15.9292720   1.4824370 107.9025900   8.8589770  18.4707950
 108.4064920   8.2797050  19.0424180 107.1633320   9.1430000  19.0084320
 114.9563840  10.2660760  18.0043470 114.1909510  10.8345760  17.9198140
 115.1379800   9.9736970  17.1111700 109.9348980   7.0019360  19.3658020
 109.9754320   6.7033230  20.2743250 110.7894480   7.4026970  19.2065540
 113.7127370   9.6014910   4.5261530 114.1343790   9.4354780   5.3692920
 113.8378210   8.7915140   4.0316670 111.8754790   5.5811460  17.3332510
 111.3451250   5.0902410  16.7055850 112.5442860   6.0095660  16.7990440
 112.3627090   2.5473830  17.4129800 112.2683960   1.9294580  16.6880670
 111.7824480   3.2740120  17.1859710 115.5348080  10.0001400  15.0669630
 115.9536190  10.8434130  14.8945870 114.6156710  10.1373440  14.8376410
 113.3855500  16.3054410  16.1827360 112.8476590  17.0300470  15.8636060
 113.6389460  15.8284750  15.3924700 114.6380750   4.2738930  17.7083290
 115.2280440   3.9654780  18.3961110 113.8200990   3.8018680  17.8643190
 116.2417710  17.5405620  16.4414010 116.1676410  18.4440760  16.7486380
 115.3396550  17.2217520  16.4136080 116.7903040  16.7064130   4.0640370
 117.6853830  17.0449100   4.0859130 116.8220670  15.9843540   3.4364650
 110.4299200  12.0791180   2.2927370 110.8674070  12.6220850   2.9484950
 110.9146930  11.2538130   2.3023710 107.6445000  14.8680210   9.7447630
 107.9748010  14.0001270   9.5126270 108.0736000  15.0738730  10.5752590
 112.2406920  13.1989220   7.4049600 111.9402460  13.0754190   8.3053510
 112.1344410  12.3397810   6.9965330 108.1335210  15.7350800  12.4829260
 107.6966200  15.9151600  13.3153410 108.7012890  16.4925420  12.3410980
 107.9659640   8.2471030   8.8418140 107.3108480   7.9782670   8.1977840
 108.8037590   8.1375510   8.3920120 109.0035570   8.6323600  13.3821480
 109.3708610   8.5451000  14.2617500 108.4346390   7.8690150  13.2828340
 108.5551570   5.5432690  17.2879900 107.6607620   5.5099450  17.6273610
 109.0949120   5.7419480  18.0531150 107.1797720   5.4569960   4.7843470
 106.2761800   5.7200160   4.6095130 107.6638340   5.7281130   4.0043430
 109.7224930   4.5135500   2.6937850 110.4316630   4.0918720   2.2085130
 109.0064870   4.5810730   2.0621200 110.4187650  13.1456290  18.5441630
 110.3757280  12.7749200  19.4256090 110.5498660  14.0833860  18.6843450
 114.1193680  14.7015880  14.1451350 113.8785040  14.9690440  13.2581870
 115.0596320  14.8721610  14.2002210 110.2575680  16.0918540  15.6639410
 109.6636000  15.9603240  16.4029450 110.2499520  15.2556680  15.1981510
 109.8887910  13.4576920  14.6147450 109.1621970  12.8382210  14.5473400
 109.9497060  13.8517530  13.7445530 113.4933010  15.6721920  11.3996860
 114.0098030  15.0609280  10.8745120 114.1430390  16.1750700  11.8907870
 116.2328510  16.5630410  12.2265840 116.5206320  16.3084710  11.3498850
 116.7451730  16.0107770  12.8171410 108.1717910  16.7751310   7.8244210
 108.0039950  16.1421990   8.5226100 107.3052420  16.9810710   7.4738400
 115.3359740   2.7207360   8.3178380 114.5234250   2.3464250   7.9774260
 115.8401380   1.9652440   8.6199570 109.7780610  15.4684540   5.2694350
 109.2528230  15.8492570   4.5656310 109.7025190  16.0935310   5.9904060
 116.3000870  17.4846510  19.5934040 117.2268180  17.2490780  19.6370000
 116.2851300  18.3118510  19.1120070 112.3773580  17.4166920   4.1443600
 113.1092400  17.1326200   3.5967490 112.6367250  17.1780200   5.0342980
 111.5388370  13.5331650   4.1489930 110.9097250  14.0016750   4.6975760
 111.6536200  12.6880870   4.5836120 100.2194600  82.6811270  65.3965090
 100.1388650  81.7665880  65.1256800  99.8059020  83.1778340  64.6904800
  98.3512640  84.4590290  67.2774360  97.5754740  83.9790730  67.5672930
  99.0025570  83.7795940  67.1030520  92.3678470  84.7710100  68.1550120
  91.5363350  84.5158810  68.5546630  92.9759450  84.8420870  68.8908040
 102.3720070  88.8650480  66.0573490 101.9101600  88.0937720  66.3860660
 103.1845620  88.8916550  66.5625940  92.3479730  88.8050190  68.3508140
  92.6507770  87.9147930  68.1718360  93.0923320  89.3620410  68.1230390
  90.7770420  79.7311990  61.9392510  89.8887120  80.0727960  61.8372390
  91.0611610  79.5312310  61.0473340  88.7403430  82.3317640  67.8232210
  89.3119540  81.5639840  67.8235850  88.7404970  82.6306400  66.9138820
  97.7921630  87.1347480  67.2844520  97.7229910  86.1937420  67.1233650
  98.5541490  87.2248890  67.8567090  89.9828300  77.7402000  69.6101140
  89.8031140  76.8427750  69.8903900  89.5808380  78.2873870  70.2848090
  98.8226800  79.9417860  67.5113450  99.1991620  79.0689740  67.3987120
  98.7246310  80.2776560  66.6203890  92.9531810  78.3143490  62.9730890
  93.0598560  79.2147220  63.2799650  92.0424170  78.2661460  62.6825540
 102.6050920  77.4368300  64.4441790 103.4260540  76.9464870  64.4867270
 102.6385000  78.0265960  65.1973630  90.6014970  80.2362500  68.2183480
  91.2825080  80.5000870  68.8370880  90.2863020  79.3963370  68.5521490
  94.7939540  81.2829860  67.3056070  95.3017760  81.7810830  67.9461090
  95.3252780  80.5065060  67.1295430 106.8950470  79.4535050  71.0085420
 106.1902640  79.8416760  70.4900530 107.1608390  80.1485340  71.6106350
  93.0775640  75.9228420  71.5719490  93.0794080  76.4400810  70.7665390
  92.2479950  75.4458600  71.5489420  99.4646730  86.0347730  63.0709390
  98.8464000  86.4997180  62.5072110  99.9769980  86.7275210  63.4878900
  94.3278490  85.5623600  69.7492990  93.9947870  86.1892520  70.3914060
  94.5045170  86.0885480  68.9694660 102.8412400  79.3768680  67.2169330
 102.1367970  79.6653570  67.7972440 103.2024560  80.1868790  66.8568890
  92.7590970  77.6338380  69.5789940  93.1007780  78.4780430  69.2843810
  91.8206780  77.7822120  69.6955280  93.5397590  87.5304400  71.5642170
  94.1571590  88.2055480  71.2826620  92.6790710  87.9392380  71.4729670
  88.8329930  86.7204260  60.4449020  88.4557910  87.2091360  59.7133920
  89.0903000  87.3929540  61.0755550 104.4575180  88.9943810  69.4796810
 103.7738700  89.6642920  69.4713480 104.9969470  89.1924460  68.7141670
 105.9099320  78.8223470  67.6078540 104.9624230  78.8562450  67.7393970
 106.2349310  79.6362420  67.9927900  96.4418860  75.1220650  65.9034530
  96.7493840  74.5667540  65.1870030  95.5119560  75.2565110  65.7207520
 103.2879340  87.5604160  63.2832160 103.1775670  86.6178490  63.4081580
 103.2847590  87.9219800  64.1694920 101.3919360  85.7417780  69.5224600
 101.8088150  85.5277890  68.6878060 102.1159180  85.9990570  70.0933220
  98.8299620  83.1869480  62.6394650  97.9028900  83.1206860  62.8683120
  98.9824440  84.1249610  62.5249890  98.8168700  79.4586480  59.6361810
  97.8772370  79.6200440  59.7214270  99.1351960  80.1772160  59.0897800
 105.3381460  84.1405000  69.6140840 104.5100090  84.2098090  69.1390970
 105.9331940  84.7259310  69.1456670 102.8596910  84.7489780  63.1429900
 102.2409330  84.4109330  62.4956200 102.8421360  84.1049540  63.8509090
 102.3023470  80.9274320  70.5595710 101.8894650  81.7528030  70.8135700
 101.5699420  80.3419360  70.3672070  94.4356260  83.7134220  65.4214380
  94.0313260  83.0011470  64.9260280  94.5219380  83.3687460  66.3102420
  94.9037960  87.4001780  67.5853590  94.6066250  86.7947250  66.9061370
  95.8537780  87.4379090  67.4742950  93.1484880  80.4877430  69.2013420
  93.6999470  80.5972770  68.4266670  93.6628390  80.8615030  69.9168650
  93.9956390  87.1383470  74.2361390  93.0984920  87.3623440  74.4834790
  94.0209260  87.2618410  73.2872790 101.0361610  83.9876590  60.1502650
 101.4754890  83.1499020  60.0040470 101.7490030  84.6205990  60.2366790
  92.8227610  84.0096790  72.8118760  92.6835380  84.8819590  73.1806160
  91.9408970  83.6669600  72.6666700  99.1456990  88.9272660  64.1183890
  99.5852900  89.6696990  63.7039280  99.0843880  89.1699230  65.0422850
  94.6207960  89.9518490  75.0203910  94.5923390  90.3561440  74.1532340
  94.4572930  89.0228850  74.8575510 104.6178750  75.2419400  58.4643690
 104.3051410  75.3346230  59.3642760 105.3791220  75.8200430  58.4141120
  91.1360890  82.6079200  62.9221030  91.0158490  83.3341290  62.3102300
  90.8261780  81.8382110  62.4448940  88.7746260  85.7794340  68.7289670
  88.8526680  85.9143110  67.7845390  89.3887940  85.0710230  68.9217790
  90.0193890  87.4794530  65.1395850  89.6121970  87.6209120  64.2849450
  90.9106900  87.1954690  64.9367060 105.9756030  87.9258440  73.4768090
 106.1019090  87.6870320  72.5585270 106.0177410  87.0942980  73.9490170
 101.5153300  89.4229340  60.0344900 100.8218460  89.4206630  59.3747180
 102.2576160  88.9988660  59.6039070 105.8280040  79.9790900  74.4417830
 105.2124310  80.4870570  73.9133290 105.5076460  79.0789230  74.3843770
  88.8305780  86.8208510  71.2684130  88.9936820  86.3513870  70.4503500
  89.2958230  86.3132070  71.9332970  93.6024550  75.9514270  66.3044700
  93.1592700  76.7323810  65.9729220  94.1609540  76.2744160  67.0115640
  97.8894360  78.8182790  71.9080020  97.4273730  79.0265810  72.7199960
  97.4872470  78.0042140  71.6050690 102.8898870  80.0391740  73.0376680
 102.0392460  79.7397490  73.3585750 102.7300660  80.2833750  72.1260500
  99.9848580  81.5393490  75.1375470 100.3101990  80.7057240  74.7977700
 100.7728910  82.0622010  75.2853800  96.7183370  75.5724970  61.1850530
  96.0937550  75.5684840  61.9103840  96.6313490  74.7055930  60.7886500
  95.6400450  76.4961600  68.1634300  95.9372780  77.4024430  68.0826320
  96.1886010  76.0080380  67.5493870  93.3938770  81.0747840  64.0325950
  93.1679690  80.8585010  64.9372570  92.6131300  81.5076300  63.6871920
 100.6236530  81.0811210  62.6316600 100.0245420  81.8047010  62.4480220
 101.1716140  81.0187990  61.8493050  95.8337980  81.9733420  74.6986220
  95.7381580  81.0328150  74.5486620  96.6769960  82.1948490  74.3034290
  99.2301400  79.7174750  64.6619880  99.6230970  80.0346950  63.8488570
  99.5918250  78.8386630  64.7764400  90.9648520  78.3847090  72.8520000
  90.5711910  79.2322300  73.0592780  90.2766920  77.7473460  73.0428640
  88.2665570  76.3075550  66.8850080  87.9778620  76.8778410  67.5975060
  89.0111330  75.8280000  67.2481310  88.4535800  80.2495670  58.0952800
  88.3710470  81.1926430  58.2367790  88.1018860  80.1070580  57.2165150
  99.8156540  82.3080500  68.7570660  99.0837660  82.8167310  69.1060760
  99.4180880  81.4910480  68.4559440  96.2533930  78.9834700  67.1623150
  96.2569990  78.5424650  66.3127690  97.1485050  79.3052030  67.2694970
  92.1036310  78.8661190  66.1217360  91.7636360  79.3436420  66.8784410
  91.3413630  78.4126310  65.7618460  96.3154080  79.9846780  60.1529910
  96.4366900  79.9433260  61.1015730  95.9302590  80.8470930  59.9976640
 100.2782450  77.7614180  68.1693600 100.2955190  78.2122830  69.0135450
 100.0298030  76.8619820  68.3827040  95.3275580  82.2947920  59.5513210
  94.7592480  81.8466170  58.9249120  96.0364580  82.6540700  59.0178360
 103.7053200  75.1746360  74.0079980 104.0298970  74.4436020  74.5337960
 103.7409710  74.8560000  73.1060970  90.4044760  86.1959940  73.4279940
  90.0199550  85.5553610  74.0262900  90.7156950  86.8996060  73.9974670
  96.5541900  83.0436480  68.9088560  96.9212030  82.5695050  69.6549900
  96.3646960  83.9178050  69.2496900  89.4182390  77.7880170  65.0382030
  89.1329310  77.4235840  65.8760650  89.3561250  77.0560630  64.4245170
  94.3441270  82.0845120  71.2272770  94.0398340  82.9637100  71.4523130
  95.2987730  82.1444910  71.2630210  92.8723060  86.2906110  61.8239620
  92.0985320  85.7503730  61.6638340  93.6017690  85.7712720  61.4857380
 103.6311040  85.2871470  67.6166010 104.3510160  85.7826760  67.2262120
 103.4292860  84.6089360  66.9719880  99.0920980  76.6809430  61.7595400
  98.2785590  76.1822600  61.6840710  98.8982930  77.5207680  61.3431750
  99.0129840  85.3580530  73.5035010  98.9467150  84.4376200  73.2492600
  98.3834980  85.4555970  74.2179650 101.8069370  81.0529080  60.0557560
 102.6948990  81.3646310  59.8808900 101.7774460  80.1801330  59.6638140
  92.9160460  85.9586490  65.4618430  93.4339130  85.1554750  65.4075320
  92.4644480  85.8965630  66.3035260  97.8029960  87.2252770  60.7345730
  98.1445660  87.9695000  60.2389050  96.9742670  87.5383890  61.0970560
  90.4005000  82.9247860  72.3744130  90.0419940  83.5901710  72.9617470
  90.1059560  82.0931410  72.7456750  93.6018120  83.3832100  75.2583680
  93.3018260  83.5289280  74.3611500  94.3729360  82.8237390  75.1657070
  98.9446570  88.1801100  73.2538810  98.9591110  87.2482060  73.0357720
  98.2371670  88.2660860  73.8928580 104.0783640  82.3640920  59.5237420
 103.9947360  82.7955140  58.6733860 104.7977830  82.8239270  59.9564240
 105.1557780  84.8208440  72.6007390 104.4305970  85.4137220  72.4036780
 105.6833240  84.8131980  71.8020760 105.1070890  89.2183180  62.2519550
 104.4647050  88.5638800  62.5263270 104.7201550  89.6238270  61.4760220
 100.6857370  86.5468610  66.0991240 101.0381190  85.9496740  65.4392610
  99.8019700  86.2212840  66.2699490  96.7720650  87.3066300  63.5061650
  97.4591780  87.8535510  63.8869240  95.9853070  87.8507030  63.5411260
  88.9113050  82.9239120  58.9978730  89.7807900  83.2063920  59.2814650
  88.4203370  83.7374990  58.8827540  96.0747860  84.3112330  63.1187010
  96.5310640  85.1217580  63.3447200  95.7236070  83.9935470  63.9505500
  98.3780470  89.8218670  70.3479310  99.0222690  90.0278050  71.0252730
  98.7409910  89.0607070  69.8950160  91.9759640  74.6549980  63.5909530
  91.8474270  74.6467880  64.5394450  91.1521660  74.9933070  63.2400540
  99.6512550  87.8251020  69.0656760 100.2934780  87.1244180  69.1788930
 100.1761900  88.6049460  68.8853650 103.4968270  88.1099640  58.7895900
 103.2705850  87.3930080  59.3820540 103.1064470  87.8612080  57.9517650
 101.4250170  88.6245920  72.2692820 101.7606410  89.2112610  72.9470740
 100.5050510  88.4938630  72.4990610  88.9753570  76.4141100  73.0516230
  88.2612090  76.6138020  73.6568840  89.3948610  75.6380670  73.4231030
 103.0784520  86.0271580  60.4510060 102.7906220  86.4884270  61.2387940
 103.8736690  85.5669350  60.7194280  97.2538750  88.6737250  75.4380880
  96.9335620  87.9546490  75.9826570  96.5797110  89.3492320  75.5116940
  95.2952920  89.5197700  60.3814030  95.2863020  90.2527390  59.7658540
  94.3751280  89.2729280  60.4740990  90.8959560  84.7412590  61.1260790
  90.2887510  85.4811490  61.1356090  91.3708910  84.8311950  60.2998990
 100.4692350  78.9063410  70.8017680 100.8373170  78.0858620  71.1297250
  99.6090550  78.9665300  71.2173330 103.8354380  77.8620350  61.6105240
 103.2067540  77.9666020  60.8963470 103.3406300  78.0817130  62.3999120
  98.2812520  89.5825940  59.0439220  98.3824500  89.3789930  58.1141200
  97.3814260  89.3284220  59.2487000  95.8038410  80.1406300  63.0263120
  95.0954560  80.6092640  63.4676730  96.0882890  79.4828310  63.6608310
  97.4294340  81.5603000  71.0255650  97.9279590  82.0348820  71.6907500
  97.5717290  80.6366520  71.2325680  99.8353840  76.8656960  64.4658910
  99.7121620  76.8843090  63.5168420 100.7838400  76.9135900  64.5857310
  94.0073430  78.4491380  60.4013830  94.8563960  78.8861530  60.3354020
  93.6404700  78.7611640  61.2285890 104.6361200  77.7770960  71.8684040
 104.1334800  78.5176360  72.2077850 105.4517860  78.1654960  71.5520830
 102.9283210  83.0204140  65.3145400 101.9873350  83.0354370  65.4893090
 103.2427280  82.2340100  65.7605700  92.9064850  84.7023740  58.8749360
  93.6728120  84.5905100  59.4374790  92.9839540  84.0061710  58.2226130
  91.6011610  82.1348810  59.5582250  91.6815200  81.1876320  59.6699650
  92.4931360  82.4655690  59.6642910  89.2871800  88.3517770  62.5358300
  88.3611580  88.5938910  62.5263710  89.7528230  89.1792030  62.4143050
  89.1282410  83.9563730  74.7938420  89.6321430  83.3771010  75.3654650
  88.3889830  84.2403960  75.3314790  96.0306030  86.6777920  58.3484710
  95.9256670  86.0630270  59.0746090  95.8630250  86.1543810  57.5647720
  96.1820350  85.3634720  74.3273940  95.4166020  85.9319720  74.2428610
  96.3636310  85.0710930  73.4342170  99.2708760  85.7397950  58.9526700
  98.7218860  86.1867250  59.5969440  99.8928020  85.2347200  59.4764370
 103.3243700  87.0940050  74.8848960 104.0653170  87.4315810  74.3816420
 102.5616380  87.2632110  74.3318730  94.9383880  84.6988870  60.8492000
  95.3600300  84.5328740  61.6923390  95.0634720  83.8889100  60.3547140
  93.1011300  80.6785420  73.6562980  92.5707760  80.1876370  73.0286320
  93.7699370  81.1069620  73.1220910  97.4511520  83.7226480  58.0969100
  97.9717180  83.0075500  57.7310250  98.0979920  84.3612350  58.3969610
 101.9989360  85.1454880  73.4204170 102.4130380  85.2999960  74.2694590
 101.0640360  85.2710100  73.5829950 102.4711530  82.4851040  75.4243320
 103.0532300  81.7303360  75.3363800 102.6473300  83.0158480  74.6474800
  93.5883600  77.6447790  73.7360270  93.4940470  77.0268540  73.0111140
  93.0080990  78.3714080  73.5090180  96.3545040  76.2021030  70.7687660
  95.9062340  76.2245290  69.9233210  95.7210240  75.8040050  71.3657960
  96.7604590  85.0975360  71.3900100  97.1792700  85.9408090  71.2176340
  95.8413220  85.2347400  71.1606880  99.0968490  82.8291540  72.7737940
  99.2164700  82.2332680  73.5132780  99.9562490  82.8661230  72.3539240
 101.4356390  83.3828730  71.3500450 100.9091610  83.9071350  70.7465590
 101.7787730  84.0156120  71.9810180  93.8342780  80.7722100  57.7950160
  93.6331840  79.9089460  58.1563500  93.6634830  80.6855460  56.8571760
  95.8637260  79.3712890  74.0313760  96.4536950  79.0628740  74.7191580
  95.0457500  78.8992640  74.1873660 100.6830690  78.9878700  74.2646780
  99.9946210  78.3260240  74.1996770 101.4036710  78.5416970  74.7095240
 101.3131090  75.5830330  60.3237040 101.5933380  74.7398230  60.6796460
 100.5396820  75.8153440  60.8375790  92.6325580  77.8722720  57.7828040
  92.9351480  77.8790150  56.8747190  93.3720170  77.5220580  58.2795700
  95.8510510  76.8157340  58.7684240  95.5032510  76.1381330  58.1886690
  96.0523280  76.3546850  59.5827630  91.6555710  87.1765140  58.6157840
  92.0930580  87.7194810  59.2715420  92.1403440  86.3512090  58.6254180
  88.8701510  89.9654170  66.0678100  89.2004520  89.0975230  65.8356740
  89.2992510  90.1712690  66.8983060  93.4663430  88.2963180  63.7280070
  93.1658970  88.1728150  64.6283980  93.3600920  87.4371770  63.3195800
 104.9953900  90.3341760  73.0937040 104.3955890  90.3934320  72.3500960
 105.1247800  89.3946740  73.2233890 106.2355350  88.0759580  58.4306750
 105.4048310  88.1436230  58.9013980 106.4127180  88.9663700  58.1273610
 105.6911810  84.8207060  60.9340950 106.4530720  85.3903710  61.0400640
 105.7066180  84.2534260  61.7049260  89.1916150  83.3444990  65.1648610
  88.5364990  83.0756630  64.5208310  90.0294100  83.2349470  64.7150590
 106.6971780  85.6757160  65.7782880 107.0680610  84.8924480  65.3718850
 107.3373710  86.3646260  65.6000180 103.6805540  87.0593740  71.1913200
 102.8665380  87.4890900  71.4538990 104.0879740  87.6712150  70.5782250
 105.7430980  85.1141430  58.0913470 106.0179820  86.0220310  57.9632690
 105.5541720  85.0503960  59.0275460 102.1406590  78.1386280  59.3867100
 102.5591470  77.9517260  58.5463760 101.8342650  77.2865330  59.6970030
 105.6396320  83.0510420  63.0842900 105.2639920  82.2838350  62.6524190
 104.9099440  83.4333120  63.5717830  90.2292080  83.7297560  69.7051950
  90.5965120  83.6424960  70.5847970  89.6602900  82.9664110  69.6058810
 105.0295940  82.1981940  72.7182420 104.7982030  81.9694690  71.8180370
 105.2900490  83.1181490  72.6727310  89.7808080  80.6406650  73.6110370
  88.8864130  80.6073410  73.9504080  90.3205630  80.8393440  74.3761620
 103.4684010  77.4238370  75.4962120 104.3454190  77.4321770  75.8796120
 103.4804850  76.6869210  74.8854470  88.4054230  80.5543920  61.1073940
  87.5018310  80.8174120  60.9325600  88.8894850  80.8255090  60.3273900
 104.9147280  81.2767910  66.3850140 105.4384760  80.7830560  65.7540310
 105.5006700  81.4118270  67.1297710 105.0937000  81.3607780  69.9069690
 104.1439710  81.3271320  70.0214680 105.2750010  82.2707890  69.6719460
  90.9481440  79.6109460  59.0168320  91.6573140  79.1892680  58.5315600
  90.2321380  79.6784690  58.3851670  90.5955600  75.6648790  58.0570970
  91.3183730  76.2057730  58.3752190  90.8680120  75.3912210  57.1812510
 104.4047250  80.5341260  62.3242550 104.9006370  80.3012130  63.1091430
 104.2063320  79.6953100  61.9080190  90.2847790  74.9154980  67.9593590
  90.9323980  74.3652360  67.5188750  90.7049630  75.1698130  68.7809400
 105.8334410  79.1702210  64.8580230 105.7233690  79.0158250  65.7962500
 106.5942000  78.6423150  64.6155640 104.1800130  75.1096340  71.3163230
 104.8172350  75.7230480  71.6822420 104.3275020  75.1457000  70.3712460
 106.7224680  77.0010130  58.0986370 107.6473990  76.8691310  57.8904660
 106.7000470  77.0802950  59.0522820 106.7963170  77.7720790  60.7243080
 106.0014670  77.7065910  61.2535990 107.0006450  78.7071430  60.7128430
  90.0379790  75.0710650  70.7018910  89.6894610  75.5274470  71.4677090
  89.7067490  74.1767780  70.7841340  91.6444160  88.2430250  74.8672100
  91.6013790  87.8723160  75.7486560  91.7755170  89.1807820  75.0073920
  95.3450190  89.7989840  70.4681820  95.1041550  90.0664400  69.5812340
  96.2852830  89.9695570  70.5232680  97.5504610  76.2622530  74.2238330
  97.4893500  76.8544360  74.9733740  98.4904990  76.1548490  74.0788590
 100.1879170  75.9192590  73.8630620 100.8019580  76.2371880  73.2011700
 100.7328730  75.4341180  74.4826480  90.7100430  74.5986850  73.9769680
  91.2583420  74.4174900  73.2135790  90.7755740  73.8080960  74.5125990
 100.9287210  74.4824730  70.1899910 100.0547050  74.8159840  69.9872840
 100.8197960  74.0097910  71.0151780 101.8359190  76.6895600  71.5741630
 101.5072550  75.8747360  71.1943360 102.7841490  76.6465410  71.4507320
  91.1144420  88.5550880  70.9377920  90.3878480  87.9356170  70.8703870
  91.1753570  88.9491490  70.0676000  98.6762030  75.3994570  69.1292820
  97.8933820  75.8740070  69.4089580  98.3824960  74.4949400  69.0206000
 103.2283100  76.1017670  67.1741910 103.6691190  76.0462770  66.3263510
 102.9590690  77.0175680  67.2452090 105.0921670  75.7332910  65.1850730
 105.0310070  74.7894130  65.0381750 105.8713700  75.8413000  65.7304190
  90.0202440  75.7042050  61.6506540  90.7781800  75.8170930  61.0770570
  89.5579610  76.5411250  61.6049970  96.5616250  77.8181320  64.6408850
  95.7490760  77.4438210  64.3004730  97.0657890  77.0626400  64.9430040
 101.0641230  74.4823770  65.8791920 101.6670600  75.0543980  66.3540440
 100.3234220  75.0463210  65.6565820 104.2075830  74.8845330  61.1532200
 104.4026460  75.7828780  61.4199630 103.4205700  74.6532410  61.6465150
  92.3927590  76.2306100  60.1908510  92.9220350  75.4435900  60.0616460
  93.0255910  76.9097290  60.4244040  94.5865430  75.9681240  63.2453900
  93.9568170  75.2668550  63.4124030  94.0470570  76.7285370  63.0287060
  94.7120990  75.2465220  75.6806390  94.4305260  75.7498820  74.9167210
  95.0940690  74.4486970  75.3148520  92.7644880  88.6305610  60.4720400
  92.1353760  89.0990710  61.0206230  92.8792710  87.7854830  60.9066590
 100.2194600  82.6811270  46.6221600 100.1388650  81.7665880  46.3513310
  99.8059020  83.1778340  45.9161310  98.3512640  84.4590290  48.5030870
  97.5754740  83.9790730  48.7929440  99.0025570  83.7795940  48.3287030
  92.3678470  84.7710100  49.3806630  91.5363350  84.5158810  49.7803140
  92.9759450  84.8420870  50.1164550 102.3720070  88.8650480  47.2830000
 101.9101600  88.0937720  47.6117170 103.1845620  88.8916550  47.7882450
  92.3479730  88.8050190  49.5764650  92.6507770  87.9147930  49.3974870
  93.0923320  89.3620410  49.3486900  90.7770420  79.7311990  43.1649020
  89.8887120  80.0727960  43.0628900  91.0611610  79.5312310  42.2729850
  88.7403430  82.3317640  49.0488720  89.3119540  81.5639840  49.0492360
  88.7404970  82.6306400  48.1395330  97.7921630  87.1347480  48.5101030
  97.7229910  86.1937420  48.3490160  98.5541490  87.2248890  49.0823600
  89.9828300  77.7402000  50.8357650  89.8031140  76.8427750  51.1160410
  89.5808380  78.2873870  51.5104600  98.8226800  79.9417860  48.7369960
  99.1991620  79.0689740  48.6243630  98.7246310  80.2776560  47.8460400
  92.9531810  78.3143490  44.1987400  93.0598560  79.2147220  44.5056160
  92.0424170  78.2661460  43.9082050 102.6050920  77.4368300  45.6698300
 103.4260540  76.9464870  45.7123780 102.6385000  78.0265960  46.4230140
  90.6014970  80.2362500  49.4439990  91.2825080  80.5000870  50.0627390
  90.2863020  79.3963370  49.7778000  94.7939540  81.2829860  48.5312580
  95.3017760  81.7810830  49.1717600  95.3252780  80.5065060  48.3551940
 106.8950470  79.4535050  52.2341930 106.1902640  79.8416760  51.7157040
 107.1608390  80.1485340  52.8362860  93.0775640  75.9228420  52.7976000
  93.0794080  76.4400810  51.9921900  92.2479950  75.4458600  52.7745930
  99.4646730  86.0347730  44.2965900  98.8464000  86.4997180  43.7328620
  99.9769980  86.7275210  44.7135410  94.3278490  85.5623600  50.9749500
  93.9947870  86.1892520  51.6170570  94.5045170  86.0885480  50.1951170
 102.8412400  79.3768680  48.4425840 102.1367970  79.6653570  49.0228950
 103.2024560  80.1868790  48.0825400  92.7590970  77.6338380  50.8046450
  93.1007780  78.4780430  50.5100320  91.8206780  77.7822120  50.9211790
  93.5397590  87.5304400  52.7898680  94.1571590  88.2055480  52.5083130
  92.6790710  87.9392380  52.6986180  88.8329930  86.7204260  41.6705530
  88.4557910  87.2091360  40.9390430  89.0903000  87.3929540  42.3012060
 104.4575180  88.9943810  50.7053320 103.7738700  89.6642920  50.6969990
 104.9969470  89.1924460  49.9398180 105.9099320  78.8223470  48.8335050
 104.9624230  78.8562450  48.9650480 106.2349310  79.6362420  49.2184410
  96.4418860  75.1220650  47.1291040  96.7493840  74.5667540  46.4126540
  95.5119560  75.2565110  46.9464030 103.2879340  87.5604160  44.5088670
 103.1775670  86.6178490  44.6338090 103.2847590  87.9219800  45.3951430
 101.3919360  85.7417780  50.7481110 101.8088150  85.5277890  49.9134570
 102.1159180  85.9990570  51.3189730  98.8299620  83.1869480  43.8651160
  97.9028900  83.1206860  44.0939630  98.9824440  84.1249610  43.7506400
  98.8168700  79.4586480  40.8618320  97.8772370  79.6200440  40.9470780
  99.1351960  80.1772160  40.3154310 105.3381460  84.1405000  50.8397350
 104.5100090  84.2098090  50.3647480 105.9331940  84.7259310  50.3713180
 102.8596910  84.7489780  44.3686410 102.2409330  84.4109330  43.7212710
 102.8421360  84.1049540  45.0765600 102.3023470  80.9274320  51.7852220
 101.8894650  81.7528030  52.0392210 101.5699420  80.3419360  51.5928580
  94.4356260  83.7134220  46.6470890  94.0313260  83.0011470  46.1516790
  94.5219380  83.3687460  47.5358930  94.9037960  87.4001780  48.8110100
  94.6066250  86.7947250  48.1317880  95.8537780  87.4379090  48.6999460
  93.1484880  80.4877430  50.4269930  93.6999470  80.5972770  49.6523180
  93.6628390  80.8615030  51.1425160  93.9956390  87.1383470  55.4617900
  93.0984920  87.3623440  55.7091300  94.0209260  87.2618410  54.5129300
 101.0361610  83.9876590  41.3759160 101.4754890  83.1499020  41.2296980
 101.7490030  84.6205990  41.4623300  92.8227610  84.0096790  54.0375270
  92.6835380  84.8819590  54.4062670  91.9408970  83.6669600  53.8923210
  99.1456990  88.9272660  45.3440400  99.5852900  89.6696990  44.9295790
  99.0843880  89.1699230  46.2679360  94.6207960  89.9518490  56.2460420
  94.5923390  90.3561440  55.3788850  94.4572930  89.0228850  56.0832020
 104.6178750  75.2419400  39.6900200 104.3051410  75.3346230  40.5899270
 105.3791220  75.8200430  39.6397630  91.1360890  82.6079200  44.1477540
  91.0158490  83.3341290  43.5358810  90.8261780  81.8382110  43.6705450
  88.7746260  85.7794340  49.9546180  88.8526680  85.9143110  49.0101900
  89.3887940  85.0710230  50.1474300  90.0193890  87.4794530  46.3652360
  89.6121970  87.6209120  45.5105960  90.9106900  87.1954690  46.1623570
 105.9756030  87.9258440  54.7024600 106.1019090  87.6870320  53.7841780
 106.0177410  87.0942980  55.1746680 101.5153300  89.4229340  41.2601410
 100.8218460  89.4206630  40.6003690 102.2576160  88.9988660  40.8295580
 105.8280040  79.9790900  55.6674340 105.2124310  80.4870570  55.1389800
 105.5076460  79.0789230  55.6100280  88.8305780  86.8208510  52.4940640
  88.9936820  86.3513870  51.6760010  89.2958230  86.3132070  53.1589480
  93.6024550  75.9514270  47.5301210  93.1592700  76.7323810  47.1985730
  94.1609540  76.2744160  48.2372150  97.8894360  78.8182790  53.1336530
  97.4273730  79.0265810  53.9456470  97.4872470  78.0042140  52.8307200
 102.8898870  80.0391740  54.2633190 102.0392460  79.7397490  54.5842260
 102.7300660  80.2833750  53.3517010  99.9848580  81.5393490  56.3631980
 100.3101990  80.7057240  56.0234210 100.7728910  82.0622010  56.5110310
  96.7183370  75.5724970  42.4107040  96.0937550  75.5684840  43.1360350
  96.6313490  74.7055930  42.0143010  95.6400450  76.4961600  49.3890810
  95.9372780  77.4024430  49.3082830  96.1886010  76.0080380  48.7750380
  93.3938770  81.0747840  45.2582460  93.1679690  80.8585010  46.1629080
  92.6131300  81.5076300  44.9128430 100.6236530  81.0811210  43.8573110
 100.0245420  81.8047010  43.6736730 101.1716140  81.0187990  43.0749560
  95.8337980  81.9733420  55.9242730  95.7381580  81.0328150  55.7743130
  96.6769960  82.1948490  55.5290800  99.2301400  79.7174750  45.8876390
  99.6230970  80.0346950  45.0745080  99.5918250  78.8386630  46.0020910
  90.9648520  78.3847090  54.0776510  90.5711910  79.2322300  54.2849290
  90.2766920  77.7473460  54.2685150  97.5393570  78.4682060  57.1473250
  96.8491890  78.2754260  57.7819340  98.2825870  78.7516700  57.6797550
  88.2665570  76.3075550  48.1106590  87.9778620  76.8778410  48.8231570
  89.0111330  75.8280000  48.4737820  88.4535800  80.2495670  39.3209310
  88.3710470  81.1926430  39.4624300  88.1018860  80.1070580  38.4421660
  99.8156540  82.3080500  49.9827170  99.0837660  82.8167310  50.3317270
  99.4180880  81.4910480  49.6815950  96.2533930  78.9834700  48.3879660
  96.2569990  78.5424650  47.5384200  97.1485050  79.3052030  48.4951480
  92.1036310  78.8661190  47.3473870  91.7636360  79.3436420  48.1040920
  91.3413630  78.4126310  46.9874970  96.3154080  79.9846780  41.3786420
  96.4366900  79.9433260  42.3272240  95.9302590  80.8470930  41.2233150
 100.2782450  77.7614180  49.3950110 100.2955190  78.2122830  50.2391960
 100.0298030  76.8619820  49.6083550  95.3275580  82.2947920  40.7769720
  94.7592480  81.8466170  40.1505630  96.0364580  82.6540700  40.2434870
 103.7053200  75.1746360  55.2336490 104.0298970  74.4436020  55.7594470
 103.7409710  74.8560000  54.3317480  90.4044760  86.1959940  54.6536450
  90.0199550  85.5553610  55.2519410  90.7156950  86.8996060  55.2231180
  96.5541900  83.0436480  50.1345070  96.9212030  82.5695050  50.8806410
  96.3646960  83.9178050  50.4753410  89.4182390  77.7880170  46.2638540
  89.1329310  77.4235840  47.1017160  89.3561250  77.0560630  45.6501680
  94.3441270  82.0845120  52.4529280  94.0398340  82.9637100  52.6779640
  95.2987730  82.1444910  52.4886720  92.8723060  86.2906110  43.0496130
  92.0985320  85.7503730  42.8894850  93.6017690  85.7712720  42.7113890
 103.6311040  85.2871470  48.8422520 104.3510160  85.7826760  48.4518630
 103.4292860  84.6089360  48.1976390  99.0920980  76.6809430  42.9851910
  98.2785590  76.1822600  42.9097220  98.8982930  77.5207680  42.5688260
  99.0129840  85.3580530  54.7291520  98.9467150  84.4376200  54.4749110
  98.3834980  85.4555970  55.4436160 101.8069370  81.0529080  41.2814070
 102.6948990  81.3646310  41.1065410 101.7774460  80.1801330  40.8894650
  92.9160460  85.9586490  46.6874940  93.4339130  85.1554750  46.6331830
  92.4644480  85.8965630  47.5291770  97.8029960  87.2252770  41.9602240
  98.1445660  87.9695000  41.4645560  96.9742670  87.5383890  42.3227070
  90.4005000  82.9247860  53.6000640  90.0419940  83.5901710  54.1873980
  90.1059560  82.0931410  53.9713260  93.6018120  83.3832100  56.4840190
  93.3018260  83.5289280  55.5868010  94.3729360  82.8237390  56.3913580
  98.9446570  88.1801100  54.4795320  98.9591110  87.2482060  54.2614230
  98.2371670  88.2660860  55.1185090 104.0783640  82.3640920  40.7493930
 103.9947360  82.7955140  39.8990370 104.7977830  82.8239270  41.1820750
 105.1557780  84.8208440  53.8263900 104.4305970  85.4137220  53.6293290
 105.6833240  84.8131980  53.0277270 105.1070890  89.2183180  43.4776060
 104.4647050  88.5638800  43.7519780 104.7201550  89.6238270  42.7016730
 100.6857370  86.5468610  47.3247750 101.0381190  85.9496740  46.6649120
  99.8019700  86.2212840  47.4956000  96.7720650  87.3066300  44.7318160
  97.4591780  87.8535510  45.1125750  95.9853070  87.8507030  44.7667770
  88.9113050  82.9239120  40.2235240  89.7807900  83.2063920  40.5071160
  88.4203370  83.7374990  40.1084050  96.0747860  84.3112330  44.3443520
  96.5310640  85.1217580  44.5703710  95.7236070  83.9935470  45.1762010
  98.3780470  89.8218670  51.5735820  99.0222690  90.0278050  52.2509240
  98.7409910  89.0607070  51.1206670  91.9759640  74.6549980  44.8166040
  91.8474270  74.6467880  45.7650960  91.1521660  74.9933070  44.4657050
  99.6512550  87.8251020  50.2913270 100.2934780  87.1244180  50.4045440
 100.1761900  88.6049460  50.1110160 103.4968270  88.1099640  40.0152410
 103.2705850  87.3930080  40.6077050 103.1064470  87.8612080  39.1774160
 101.4250170  88.6245920  53.4949330 101.7606410  89.2112610  54.1727250
 100.5050510  88.4938630  53.7247120  88.9753570  76.4141100  54.2772740
  88.2612090  76.6138020  54.8825350  89.3948610  75.6380670  54.6487540
 103.0784520  86.0271580  41.6766570 102.7906220  86.4884270  42.4644450
 103.8736690  85.5669350  41.9450790  97.2538750  88.6737250  56.6637390
  96.9335620  87.9546490  57.2083080  96.5797110  89.3492320  56.7373450
  95.2952920  89.5197700  41.6070540  95.2863020  90.2527390  40.9915050
  94.3751280  89.2729280  41.6997500  90.8959560  84.7412590  42.3517300
  90.2887510  85.4811490  42.3612600  91.3708910  84.8311950  41.5255500
 100.4692350  78.9063410  52.0274190 100.8373170  78.0858620  52.3553760
  99.6090550  78.9665300  52.4429840 103.8354380  77.8620350  42.8361750
 103.2067540  77.9666020  42.1219980 103.3406300  78.0817130  43.6255630
  98.2812520  89.5825940  40.2695730  98.3824500  89.3789930  39.3397710
  97.3814260  89.3284220  40.4743510  95.8038410  80.1406300  44.2519630
  95.0954560  80.6092640  44.6933240  96.0882890  79.4828310  44.8864820
  97.4294340  81.5603000  52.2512160  97.9279590  82.0348820  52.9164010
  97.5717290  80.6366520  52.4582190  99.8353840  76.8656960  45.6915420
  99.7121620  76.8843090  44.7424930 100.7838400  76.9135900  45.8113820
  94.0073430  78.4491380  41.6270340  94.8563960  78.8861530  41.5610530
  93.6404700  78.7611640  42.4542400 104.6361200  77.7770960  53.0940550
 104.1334800  78.5176360  53.4334360 105.4517860  78.1654960  52.7777340
 102.9283210  83.0204140  46.5401910 101.9873350  83.0354370  46.7149600
 103.2427280  82.2340100  46.9862210  92.9064850  84.7023740  40.1005870
  93.6728120  84.5905100  40.6631300  92.9839540  84.0061710  39.4482640
  91.6011610  82.1348810  40.7838760  91.6815200  81.1876320  40.8956160
  92.4931360  82.4655690  40.8899420  89.2871800  88.3517770  43.7614810
  88.3611580  88.5938910  43.7520220  89.7528230  89.1792030  43.6399560
 100.2449230  87.5770140  57.0234290  99.6387390  87.6001740  56.2830040
  99.9403340  86.8453180  57.5601540  89.1282410  83.9563730  56.0194930
  89.6321430  83.3771010  56.5911160  88.3889830  84.2403960  56.5571300
  96.0306030  86.6777920  39.5741220  95.9256670  86.0630270  40.3002600
  95.8630250  86.1543810  38.7904230  96.1820350  85.3634720  55.5530450
  95.4166020  85.9319720  55.4685120  96.3636310  85.0710930  54.6598680
  99.2708760  85.7397950  40.1783210  98.7218860  86.1867250  40.8225950
  99.8928020  85.2347200  40.7020880 103.3243700  87.0940050  56.1105470
 104.0653170  87.4315810  55.6072930 102.5616380  87.2632110  55.5575240
  91.1605490  82.0993320  56.9145000  91.2010830  81.8007190  57.8230230
  92.0150990  82.5000930  56.7552520  94.9383880  84.6988870  42.0748510
  95.3600300  84.5328740  42.9179900  95.0634720  83.8889100  41.5803650
  93.1011300  80.6785420  54.8819490  92.5707760  80.1876370  54.2542830
  93.7699370  81.1069620  54.3477420  97.4511520  83.7226480  39.3225610
  97.9717180  83.0075500  38.9566760  98.0979920  84.3612350  39.6226120
 101.9989360  85.1454880  54.6460680 102.4130380  85.2999960  55.4951100
 101.0640360  85.2710100  54.8086460 102.4711530  82.4851040  56.6499830
 103.0532300  81.7303360  56.5620310 102.6473300  83.0158480  55.8731310
  93.5883600  77.6447790  54.9616780  93.4940470  77.0268540  54.2367650
  93.0080990  78.3714080  54.7346690  96.3545040  76.2021030  51.9944170
  95.9062340  76.2245290  51.1489720  95.7210240  75.8040050  52.5914470
  96.7604590  85.0975360  52.6156610  97.1792700  85.9408090  52.4432850
  95.8413220  85.2347400  52.3863390  99.0968490  82.8291540  53.9994450
  99.2164700  82.2332680  54.7389290  99.9562490  82.8661230  53.5795750
 101.4356390  83.3828730  52.5756960 100.9091610  83.9071350  51.9722100
 101.7787730  84.0156120  53.2066690  93.8342780  80.7722100  39.0206670
  93.6331840  79.9089460  39.3820010  93.6634830  80.6855460  38.0828270
  95.8637260  79.3712890  55.2570270  96.4536950  79.0628740  55.9448090
  95.0457500  78.8992640  55.4130170 100.6830690  78.9878700  55.4903290
  99.9946210  78.3260240  55.4253280 101.4036710  78.5416970  55.9351750
 101.3131090  75.5830330  41.5493550 101.5933380  74.7398230  41.9052970
 100.5396820  75.8153440  42.0632300  92.6325580  77.8722720  39.0084550
  92.9351480  77.8790150  38.1003700  93.3720170  77.5220580  39.5052210
  95.8510510  76.8157340  39.9940750  95.5032510  76.1381330  39.4143200
  96.0523280  76.3546850  40.8084140  91.6555710  87.1765140  39.8414350
  92.0930580  87.7194810  40.4971930  92.1403440  86.3512090  39.8510690
  88.8701510  89.9654170  47.2934610  89.2004520  89.0975230  47.0613250
  89.2992510  90.1712690  48.1239570  93.4663430  88.2963180  44.9536580
  93.1658970  88.1728150  45.8540490  93.3600920  87.4371770  44.5452310
 104.9953900  90.3341760  54.3193550 104.3955890  90.3934320  53.5757470
 105.1247800  89.3946740  54.4490400 106.2355350  88.0759580  39.6563260
 105.4048310  88.1436230  40.1270490 106.4127180  88.9663700  39.3530120
 105.6911810  84.8207060  42.1597460 106.4530720  85.3903710  42.2657150
 105.7066180  84.2534260  42.9305770  89.1916150  83.3444990  46.3905120
  88.5364990  83.0756630  45.7464820  90.0294100  83.2349470  45.9407100
 106.6971780  85.6757160  47.0039390 107.0680610  84.8924480  46.5975360
 107.3373710  86.3646260  46.8256690 103.6805540  87.0593740  52.4169710
 102.8665380  87.4890900  52.6795500 104.0879740  87.6712150  51.8038760
 105.7430980  85.1141430  39.3169980 106.0179820  86.0220310  39.1889200
 105.5541720  85.0503960  40.2531970 102.1406590  78.1386280  40.6123610
 102.5591470  77.9517260  39.7720270 101.8342650  77.2865330  40.9226540
 105.6396320  83.0510420  44.3099410 105.2639920  82.2838350  43.8780700
 104.9099440  83.4333120  44.7974340  90.2292080  83.7297560  50.9308460
  90.5965120  83.6424960  51.8104480  89.6602900  82.9664110  50.8315320
 105.0295940  82.1981940  53.9438930 104.7982030  81.9694690  53.0436880
 105.2900490  83.1181490  53.8983820  89.7808080  80.6406650  54.8366880
  88.8864130  80.6073410  55.1760590  90.3205630  80.8393440  55.6018130
 103.4684010  77.4238370  56.7218630 104.3454190  77.4321770  57.1052630
 103.4804850  76.6869210  56.1110980  88.4054230  80.5543920  42.3330450
  87.5018310  80.8174120  42.1582110  88.8894850  80.8255090  41.5530410
 104.9147280  81.2767910  47.6106650 105.4384760  80.7830560  46.9796820
 105.5006700  81.4118270  48.3554220 105.0937000  81.3607780  51.1326200
 104.1439710  81.3271320  51.2471190 105.2750010  82.2707890  50.8975970
  90.9481440  79.6109460  40.2424830  91.6573140  79.1892680  39.7572110
  90.2321380  79.6784690  39.6108180  90.5955600  75.6648790  39.2827480
  91.3183730  76.2057730  39.6008700  90.8680120  75.3912210  38.4069020
 104.4047250  80.5341260  43.5499060 104.9006370  80.3012130  44.3347940
 104.2063320  79.6953100  43.1336700  90.2847790  74.9154980  49.1850100
  90.9323980  74.3652360  48.7445260  90.7049630  75.1698130  50.0065910
 105.8334410  79.1702210  46.0836740 105.7233690  79.0158250  47.0219010
 106.5942000  78.6423150  45.8412150 104.1800130  75.1096340  52.5419740
 104.8172350  75.7230480  52.9078930 104.3275020  75.1457000  51.5968970
 106.7224680  77.0010130  39.3242880 107.6473990  76.8691310  39.1161170
 106.7000470  77.0802950  40.2779330 106.7963170  77.7720790  41.9499590
 106.0014670  77.7065910  42.4792500 107.0006450  78.7071430  41.9384940
  90.0379790  75.0710650  51.9275420  89.6894610  75.5274470  52.6933600
  89.7067490  74.1767780  52.0097850  91.6444160  88.2430250  56.0928610
  91.6013790  87.8723160  56.9743070  91.7755170  89.1807820  56.2330430
  95.3450190  89.7989840  51.6938330  95.1041550  90.0664400  50.8068850
  96.2852830  89.9695570  51.7489190  97.5504610  76.2622530  55.4494840
  97.4893500  76.8544360  56.1990250  98.4904990  76.1548490  55.3045100
 100.1879170  75.9192590  55.0887130 100.8019580  76.2371880  54.4268210
 100.7328730  75.4341180  55.7082990  90.7100430  74.5986850  55.2026190
  91.2583420  74.4174900  54.4392300  90.7755740  73.8080960  55.7382500
 100.9287210  74.4824730  51.4156420 100.0547050  74.8159840  51.2129350
 100.8197960  74.0097910  52.2408290 101.8359190  76.6895600  52.7998140
 101.5072550  75.8747360  52.4199870 102.7841490  76.6465410  52.6763830
  91.1144420  88.5550880  52.1634430  90.3878480  87.9356170  52.0960380
  91.1753570  88.9491490  51.2932510  98.6762030  75.3994570  50.3549330
  97.8933820  75.8740070  50.6346090  98.3824960  74.4949400  50.2462510
 103.2283100  76.1017670  48.3998420 103.6691190  76.0462770  47.5520020
 102.9590690  77.0175680  48.4708600 105.0921670  75.7332910  46.4107240
 105.0310070  74.7894130  46.2638260 105.8713700  75.8413000  46.9560700
  90.0202440  75.7042050  42.8763050  90.7781800  75.8170930  42.3027080
  89.5579610  76.5411250  42.8306480  96.5616250  77.8181320  45.8665360
  95.7490760  77.4438210  45.5261240  97.0657890  77.0626400  46.1686550
 101.0641230  74.4823770  47.1048430 101.6670600  75.0543980  47.5796950
 100.3234220  75.0463210  46.8822330 104.2075830  74.8845330  42.3788710
 104.4026460  75.7828780  42.6456140 103.4205700  74.6532410  42.8721660
  92.3927590  76.2306100  41.4165020  92.9220350  75.4435900  41.2872970
  93.0255910  76.9097290  41.6500550  94.5865430  75.9681240  44.4710410
  93.9568170  75.2668550  44.6380540  94.0470570  76.7285370  44.2543570
  94.7120990  75.2465220  56.9062900  94.4305260  75.7498820  56.1423720
  95.0940690  74.4486970  56.5405030  92.7644880  88.6305610  41.6976910
  92.1353760  89.0990710  42.2462740  92.8792710  87.7854830  42.1323100
 101.3136450  74.6618800  57.4843370 101.2001900  74.9813410  58.3794890
 102.1306190  75.0631310  57.1880650 100.2194600  82.6811270  27.8478110
 100.1388650  81.7665880  27.5769820  99.8059020  83.1778340  27.1417820
  98.3512640  84.4590290  29.7287380  97.5754740  83.9790730  30.0185950
  99.0025570  83.7795940  29.5543540  92.3678470  84.7710100  30.6063140
  91.5363350  84.5158810  31.0059650  92.9759450  84.8420870  31.3421060
 102.3720070  88.8650480  28.5086510 101.9101600  88.0937720  28.8373680
 103.1845620  88.8916550  29.0138960  92.3479730  88.8050190  30.8021160
  92.6507770  87.9147930  30.6231380  93.0923320  89.3620410  30.5743410
  90.7770420  79.7311990  24.3905530  89.8887120  80.0727960  24.2885410
  91.0611610  79.5312310  23.4986360  88.7403430  82.3317640  30.2745230
  89.3119540  81.5639840  30.2748870  88.7404970  82.6306400  29.3651840
  97.7921630  87.1347480  29.7357540  97.7229910  86.1937420  29.5746670
  98.5541490  87.2248890  30.3080110  89.9828300  77.7402000  32.0614160
  89.8031140  76.8427750  32.3416920  89.5808380  78.2873870  32.7361110
  98.8226800  79.9417860  29.9626470  99.1991620  79.0689740  29.8500140
  98.7246310  80.2776560  29.0716910  92.9531810  78.3143490  25.4243910
  93.0598560  79.2147220  25.7312670  92.0424170  78.2661460  25.1338560
 102.6050920  77.4368300  26.8954810 103.4260540  76.9464870  26.9380290
 102.6385000  78.0265960  27.6486650  90.6014970  80.2362500  30.6696500
  91.2825080  80.5000870  31.2883900  90.2863020  79.3963370  31.0034510
  94.7939540  81.2829860  29.7569090  95.3017760  81.7810830  30.3974110
  95.3252780  80.5065060  29.5808450 106.8950470  79.4535050  33.4598440
 106.1902640  79.8416760  32.9413550 107.1608390  80.1485340  34.0619370
  93.0775640  75.9228420  34.0232510  93.0794080  76.4400810  33.2178410
  92.2479950  75.4458600  34.0002440  99.4646730  86.0347730  25.5222410
  98.8464000  86.4997180  24.9585130  99.9769980  86.7275210  25.9391920
  94.3278490  85.5623600  32.2006010  93.9947870  86.1892520  32.8427080
  94.5045170  86.0885480  31.4207680 102.8412400  79.3768680  29.6682350
 102.1367970  79.6653570  30.2485460 103.2024560  80.1868790  29.3081910
  92.7590970  77.6338380  32.0302960  93.1007780  78.4780430  31.7356830
  91.8206780  77.7822120  32.1468300  93.5397590  87.5304400  34.0155190
  94.1571590  88.2055480  33.7339640  92.6790710  87.9392380  33.9242690
  88.8329930  86.7204260  22.8962040  88.4557910  87.2091360  22.1646940
  89.0903000  87.3929540  23.5268570 104.4575180  88.9943810  31.9309830
 103.7738700  89.6642920  31.9226500 104.9969470  89.1924460  31.1654690
 105.9099320  78.8223470  30.0591560 104.9624230  78.8562450  30.1906990
 106.2349310  79.6362420  30.4440920  96.4418860  75.1220650  28.3547550
  96.7493840  74.5667540  27.6383050  95.5119560  75.2565110  28.1720540
 103.2879340  87.5604160  25.7345180 103.1775670  86.6178490  25.8594600
 103.2847590  87.9219800  26.6207940 101.3919360  85.7417780  31.9737620
 101.8088150  85.5277890  31.1391080 102.1159180  85.9990570  32.5446240
  98.8299620  83.1869480  25.0907670  97.9028900  83.1206860  25.3196140
  98.9824440  84.1249610  24.9762910  98.8168700  79.4586480  22.0874830
  97.8772370  79.6200440  22.1727290  99.1351960  80.1772160  21.5410820
 105.3381460  84.1405000  32.0653860 104.5100090  84.2098090  31.5903990
 105.9331940  84.7259310  31.5969690 102.8596910  84.7489780  25.5942920
 102.2409330  84.4109330  24.9469220 102.8421360  84.1049540  26.3022110
 102.3023470  80.9274320  33.0108730 101.8894650  81.7528030  33.2648720
 101.5699420  80.3419360  32.8185090  94.4356260  83.7134220  27.8727400
  94.0313260  83.0011470  27.3773300  94.5219380  83.3687460  28.7615440
  94.9037960  87.4001780  30.0366610  94.6066250  86.7947250  29.3574390
  95.8537780  87.4379090  29.9255970  93.1484880  80.4877430  31.6526440
  93.6999470  80.5972770  30.8779690  93.6628390  80.8615030  32.3681670
  93.9956390  87.1383470  36.6874410  93.0984920  87.3623440  36.9347810
  94.0209260  87.2618410  35.7385810 101.0361610  83.9876590  22.6015670
 101.4754890  83.1499020  22.4553490 101.7490030  84.6205990  22.6879810
  92.8227610  84.0096790  35.2631780  92.6835380  84.8819590  35.6319180
  91.9408970  83.6669600  35.1179720  99.1456990  88.9272660  26.5696910
  99.5852900  89.6696990  26.1552300  99.0843880  89.1699230  27.4935870
  94.6207960  89.9518490  37.4716930  94.5923390  90.3561440  36.6045360
  94.4572930  89.0228850  37.3088530 104.6178750  75.2419400  20.9156710
 104.3051410  75.3346230  21.8155780 105.3791220  75.8200430  20.8654140
  91.1360890  82.6079200  25.3734050  91.0158490  83.3341290  24.7615320
  90.8261780  81.8382110  24.8961960  88.7746260  85.7794340  31.1802690
  88.8526680  85.9143110  30.2358410  89.3887940  85.0710230  31.3730810
  90.0193890  87.4794530  27.5908870  89.6121970  87.6209120  26.7362470
  90.9106900  87.1954690  27.3880080 105.9756030  87.9258440  35.9281110
 106.1019090  87.6870320  35.0098290 106.0177410  87.0942980  36.4003190
 101.5153300  89.4229340  22.4857920 100.8218460  89.4206630  21.8260200
 102.2576160  88.9988660  22.0552090 105.8280040  79.9790900  36.8930850
 105.2124310  80.4870570  36.3646310 105.5076460  79.0789230  36.8356790
  88.8305780  86.8208510  33.7197150  88.9936820  86.3513870  32.9016520
  89.2958230  86.3132070  34.3845990  93.6024550  75.9514270  28.7557720
  93.1592700  76.7323810  28.4242240  94.1609540  76.2744160  29.4628660
  97.8894360  78.8182790  34.3593040  97.4273730  79.0265810  35.1712980
  97.4872470  78.0042140  34.0563710 102.8898870  80.0391740  35.4889700
 102.0392460  79.7397490  35.8098770 102.7300660  80.2833750  34.5773520
  99.9848580  81.5393490  37.5888490 100.3101990  80.7057240  37.2490720
 100.7728910  82.0622010  37.7366820  96.7183370  75.5724970  23.6363550
  96.0937550  75.5684840  24.3616860  96.6313490  74.7055930  23.2399520
  95.6400450  76.4961600  30.6147320  95.9372780  77.4024430  30.5339340
  96.1886010  76.0080380  30.0006890  93.3938770  81.0747840  26.4838970
  93.1679690  80.8585010  27.3885590  92.6131300  81.5076300  26.1384940
 100.6236530  81.0811210  25.0829620 100.0245420  81.8047010  24.8993240
 101.1716140  81.0187990  24.3006070  95.8337980  81.9733420  37.1499240
  95.7381580  81.0328150  36.9999640  96.6769960  82.1948490  36.7547310
  99.2301400  79.7174750  27.1132900  99.6230970  80.0346950  26.3001590
  99.5918250  78.8386630  27.2277420  90.9648520  78.3847090  35.3033020
  90.5711910  79.2322300  35.5105800  90.2766920  77.7473460  35.4941660
  97.5393570  78.4682060  38.3729760  96.8491890  78.2754260  39.0075850
  98.2825870  78.7516700  38.9054060  88.2665570  76.3075550  29.3363100
  87.9778620  76.8778410  30.0488080  89.0111330  75.8280000  29.6994330
  88.4535800  80.2495670  20.5465820  88.3710470  81.1926430  20.6880810
  88.1018860  80.1070580  19.6678170  99.8156540  82.3080500  31.2083680
  99.0837660  82.8167310  31.5573780  99.4180880  81.4910480  30.9072460
  96.2533930  78.9834700  29.6136170  96.2569990  78.5424650  28.7640710
  97.1485050  79.3052030  29.7207990  92.1036310  78.8661190  28.5730380
  91.7636360  79.3436420  29.3297430  91.3413630  78.4126310  28.2131480
  96.3154080  79.9846780  22.6042930  96.4366900  79.9433260  23.5528750
  95.9302590  80.8470930  22.4489660 100.2782450  77.7614180  30.6206620
 100.2955190  78.2122830  31.4648470 100.0298030  76.8619820  30.8340060
  95.3275580  82.2947920  22.0026230  94.7592480  81.8466170  21.3762140
  96.0364580  82.6540700  21.4691380 103.7053200  75.1746360  36.4593000
 104.0298970  74.4436020  36.9850980 103.7409710  74.8560000  35.5573990
  90.4044760  86.1959940  35.8792960  90.0199550  85.5553610  36.4775920
  90.7156950  86.8996060  36.4487690  96.5541900  83.0436480  31.3601580
  96.9212030  82.5695050  32.1062920  96.3646960  83.9178050  31.7009920
  89.4182390  77.7880170  27.4895050  89.1329310  77.4235840  28.3273670
  89.3561250  77.0560630  26.8758190  94.3441270  82.0845120  33.6785790
  94.0398340  82.9637100  33.9036150  95.2987730  82.1444910  33.7143230
  92.8723060  86.2906110  24.2752640  92.0985320  85.7503730  24.1151360
  93.6017690  85.7712720  23.9370400 103.6311040  85.2871470  30.0679030
 104.3510160  85.7826760  29.6775140 103.4292860  84.6089360  29.4232900
  99.0920980  76.6809430  24.2108420  98.2785590  76.1822600  24.1353730
  98.8982930  77.5207680  23.7944770  99.0129840  85.3580530  35.9548030
  98.9467150  84.4376200  35.7005620  98.3834980  85.4555970  36.6692670
 101.8069370  81.0529080  22.5070580 102.6948990  81.3646310  22.3321920
 101.7774460  80.1801330  22.1151160  92.9160460  85.9586490  27.9131450
  93.4339130  85.1554750  27.8588340  92.4644480  85.8965630  28.7548280
  97.8029960  87.2252770  23.1858750  98.1445660  87.9695000  22.6902070
  96.9742670  87.5383890  23.5483580  90.4005000  82.9247860  34.8257150
  90.0419940  83.5901710  35.4130490  90.1059560  82.0931410  35.1969770
  93.6018120  83.3832100  37.7096700  93.3018260  83.5289280  36.8124520
  94.3729360  82.8237390  37.6170090  98.9446570  88.1801100  35.7051830
  98.9591110  87.2482060  35.4870740  98.2371670  88.2660860  36.3441600
 104.0783640  82.3640920  21.9750440 103.9947360  82.7955140  21.1246880
 104.7977830  82.8239270  22.4077260 105.1557780  84.8208440  35.0520410
 104.4305970  85.4137220  34.8549800 105.6833240  84.8131980  34.2533780
 105.1070890  89.2183180  24.7032570 104.4647050  88.5638800  24.9776290
 104.7201550  89.6238270  23.9273240 100.6857370  86.5468610  28.5504260
 101.0381190  85.9496740  27.8905630  99.8019700  86.2212840  28.7212510
  96.7720650  87.3066300  25.9574670  97.4591780  87.8535510  26.3382260
  95.9853070  87.8507030  25.9924280  88.9113050  82.9239120  21.4491750
  89.7807900  83.2063920  21.7327670  88.4203370  83.7374990  21.3340560
  96.0747860  84.3112330  25.5700030  96.5310640  85.1217580  25.7960220
  95.7236070  83.9935470  26.4018520  98.3780470  89.8218670  32.7992330
  99.0222690  90.0278050  33.4765750  98.7409910  89.0607070  32.3463180
  91.9759640  74.6549980  26.0422550  91.8474270  74.6467880  26.9907470
  91.1521660  74.9933070  25.6913560  99.6512550  87.8251020  31.5169780
 100.2934780  87.1244180  31.6301950 100.1761900  88.6049460  31.3366670
 103.4968270  88.1099640  21.2408920 103.2705850  87.3930080  21.8333560
 103.1064470  87.8612080  20.4030670 101.4250170  88.6245920  34.7205840
 101.7606410  89.2112610  35.3983760 100.5050510  88.4938630  34.9503630
  88.9753570  76.4141100  35.5029250  88.2612090  76.6138020  36.1081860
  89.3948610  75.6380670  35.8744050 103.0784520  86.0271580  22.9023080
 102.7906220  86.4884270  23.6900960 103.8736690  85.5669350  23.1707300
  97.2538750  88.6737250  37.8893900  96.9335620  87.9546490  38.4339590
  96.5797110  89.3492320  37.9629960  95.2952920  89.5197700  22.8327050
  95.2863020  90.2527390  22.2171560  94.3751280  89.2729280  22.9254010
  90.8959560  84.7412590  23.5773810  90.2887510  85.4811490  23.5869110
  91.3708910  84.8311950  22.7512010 100.4692350  78.9063410  33.2530700
 100.8373170  78.0858620  33.5810270  99.6090550  78.9665300  33.6686350
 103.8354380  77.8620350  24.0618260 103.2067540  77.9666020  23.3476490
 103.3406300  78.0817130  24.8512140  98.2812520  89.5825940  21.4952240
  98.3824500  89.3789930  20.5654220  97.3814260  89.3284220  21.7000020
  95.8038410  80.1406300  25.4776140  95.0954560  80.6092640  25.9189750
  96.0882890  79.4828310  26.1121330  97.4294340  81.5603000  33.4768670
  97.9279590  82.0348820  34.1420520  97.5717290  80.6366520  33.6838700
  99.8353840  76.8656960  26.9171930  99.7121620  76.8843090  25.9681440
 100.7838400  76.9135900  27.0370330  94.0073430  78.4491380  22.8526850
  94.8563960  78.8861530  22.7867040  93.6404700  78.7611640  23.6798910
 104.6361200  77.7770960  34.3197060 104.1334800  78.5176360  34.6590870
 105.4517860  78.1654960  34.0033850 102.9283210  83.0204140  27.7658420
 101.9873350  83.0354370  27.9406110 103.2427280  82.2340100  28.2118720
  92.9064850  84.7023740  21.3262380  93.6728120  84.5905100  21.8887810
  92.9839540  84.0061710  20.6739150  91.6011610  82.1348810  22.0095270
  91.6815200  81.1876320  22.1212670  92.4931360  82.4655690  22.1155930
  89.2871800  88.3517770  24.9871320  88.3611580  88.5938910  24.9776730
  89.7528230  89.1792030  24.8656070 100.2449230  87.5770140  38.2490800
  99.6387390  87.6001740  37.5086550  99.9403340  86.8453180  38.7858050
  89.1282410  83.9563730  37.2451440  89.6321430  83.3771010  37.8167670
  88.3889830  84.2403960  37.7827810  96.0306030  86.6777920  20.7997730
  95.9256670  86.0630270  21.5259110  95.8630250  86.1543810  20.0160740
  96.1820350  85.3634720  36.7786960  95.4166020  85.9319720  36.6941630
  96.3636310  85.0710930  35.8855190  99.2708760  85.7397950  21.4039720
  98.7218860  86.1867250  22.0482460  99.8928020  85.2347200  21.9277390
 103.3243700  87.0940050  37.3361980 104.0653170  87.4315810  36.8329440
 102.5616380  87.2632110  36.7831750  91.1605490  82.0993320  38.1401510
  91.2010830  81.8007190  39.0486740  92.0150990  82.5000930  37.9809030
  94.9383880  84.6988870  23.3005020  95.3600300  84.5328740  24.1436410
  95.0634720  83.8889100  22.8060160  93.1011300  80.6785420  36.1076000
  92.5707760  80.1876370  35.4799340  93.7699370  81.1069620  35.5733930
  97.4511520  83.7226480  20.5482120  97.9717180  83.0075500  20.1823270
  98.0979920  84.3612350  20.8482630 101.9989360  85.1454880  35.8717190
 102.4130380  85.2999960  36.7207610 101.0640360  85.2710100  36.0342970
 102.4711530  82.4851040  37.8756340 103.0532300  81.7303360  37.7876820
 102.6473300  83.0158480  37.0987820  93.5883600  77.6447790  36.1873290
  93.4940470  77.0268540  35.4624160  93.0080990  78.3714080  35.9603200
  96.3545040  76.2021030  33.2200680  95.9062340  76.2245290  32.3746230
  95.7210240  75.8040050  33.8170980  96.7604590  85.0975360  33.8413120
  97.1792700  85.9408090  33.6689360  95.8413220  85.2347400  33.6119900
  99.0968490  82.8291540  35.2250960  99.2164700  82.2332680  35.9645800
  99.9562490  82.8661230  34.8052260 101.4356390  83.3828730  33.8013470
 100.9091610  83.9071350  33.1978610 101.7787730  84.0156120  34.4323200
  93.8342780  80.7722100  20.2463180  93.6331840  79.9089460  20.6076520
  93.6634830  80.6855460  19.3084780  95.8637260  79.3712890  36.4826780
  96.4536950  79.0628740  37.1704600  95.0457500  78.8992640  36.6386680
 100.6830690  78.9878700  36.7159800  99.9946210  78.3260240  36.6509790
 101.4036710  78.5416970  37.1608260 101.3131090  75.5830330  22.7750060
 101.5933380  74.7398230  23.1309480 100.5396820  75.8153440  23.2888810
  92.6325580  77.8722720  20.2341060  92.9351480  77.8790150  19.3260210
  93.3720170  77.5220580  20.7308720  95.8510510  76.8157340  21.2197260
  95.5032510  76.1381330  20.6399710  96.0523280  76.3546850  22.0340650
  91.6555710  87.1765140  21.0670860  92.0930580  87.7194810  21.7228440
  92.1403440  86.3512090  21.0767200  88.8701510  89.9654170  28.5191120
  89.2004520  89.0975230  28.2869760  89.2992510  90.1712690  29.3496080
  93.4663430  88.2963180  26.1793090  93.1658970  88.1728150  27.0797000
  93.3600920  87.4371770  25.7708820 104.9953900  90.3341760  35.5450060
 104.3955890  90.3934320  34.8013980 105.1247800  89.3946740  35.6746910
 106.2355350  88.0759580  20.8819770 105.4048310  88.1436230  21.3527000
 106.4127180  88.9663700  20.5786630 105.6911810  84.8207060  23.3853970
 106.4530720  85.3903710  23.4913660 105.7066180  84.2534260  24.1562280
  89.1916150  83.3444990  27.6161630  88.5364990  83.0756630  26.9721330
  90.0294100  83.2349470  27.1663610 106.6971780  85.6757160  28.2295900
 107.0680610  84.8924480  27.8231870 107.3373710  86.3646260  28.0513200
 103.6805540  87.0593740  33.6426220 102.8665380  87.4890900  33.9052010
 104.0879740  87.6712150  33.0295270 105.7430980  85.1141430  20.5426490
 106.0179820  86.0220310  20.4145710 105.5541720  85.0503960  21.4788480
 102.1406590  78.1386280  21.8380120 102.5591470  77.9517260  20.9976780
 101.8342650  77.2865330  22.1483050 105.6396320  83.0510420  25.5355920
 105.2639920  82.2838350  25.1037210 104.9099440  83.4333120  26.0230850
  90.2292080  83.7297560  32.1564970  90.5965120  83.6424960  33.0360990
  89.6602900  82.9664110  32.0571830 105.0295940  82.1981940  35.1695440
 104.7982030  81.9694690  34.2693390 105.2900490  83.1181490  35.1240330
  89.7808080  80.6406650  36.0623390  88.8864130  80.6073410  36.4017100
  90.3205630  80.8393440  36.8274640 103.4684010  77.4238370  37.9475140
 104.3454190  77.4321770  38.3309140 103.4804850  76.6869210  37.3367490
  88.4054230  80.5543920  23.5586960  87.5018310  80.8174120  23.3838620
  88.8894850  80.8255090  22.7786920 104.9147280  81.2767910  28.8363160
 105.4384760  80.7830560  28.2053330 105.5006700  81.4118270  29.5810730
 105.0937000  81.3607780  32.3582710 104.1439710  81.3271320  32.4727700
 105.2750010  82.2707890  32.1232480  90.9481440  79.6109460  21.4681340
  91.6573140  79.1892680  20.9828620  90.2321380  79.6784690  20.8364690
  90.5955600  75.6648790  20.5083990  91.3183730  76.2057730  20.8265210
  90.8680120  75.3912210  19.6325530 104.4047250  80.5341260  24.7755570
 104.9006370  80.3012130  25.5604450 104.2063320  79.6953100  24.3593210
  90.2847790  74.9154980  30.4106610  90.9323980  74.3652360  29.9701770
  90.7049630  75.1698130  31.2322420 105.8334410  79.1702210  27.3093250
 105.7233690  79.0158250  28.2475520 106.5942000  78.6423150  27.0668660
 104.1800130  75.1096340  33.7676250 104.8172350  75.7230480  34.1335440
 104.3275020  75.1457000  32.8225480 106.7224680  77.0010130  20.5499390
 107.6473990  76.8691310  20.3417680 106.7000470  77.0802950  21.5035840
 106.7963170  77.7720790  23.1756100 106.0014670  77.7065910  23.7049010
 107.0006450  78.7071430  23.1641450  90.0379790  75.0710650  33.1531930
  89.6894610  75.5274470  33.9190110  89.7067490  74.1767780  33.2354360
  91.6444160  88.2430250  37.3185120  91.6013790  87.8723160  38.1999580
  91.7755170  89.1807820  37.4586940  95.3450190  89.7989840  32.9194840
  95.1041550  90.0664400  32.0325360  96.2852830  89.9695570  32.9745700
  97.5504610  76.2622530  36.6751350  97.4893500  76.8544360  37.4246760
  98.4904990  76.1548490  36.5301610 100.1879170  75.9192590  36.3143640
 100.8019580  76.2371880  35.6524720 100.7328730  75.4341180  36.9339500
  90.7100430  74.5986850  36.4282700  91.2583420  74.4174900  35.6648810
  90.7755740  73.8080960  36.9639010 100.9287210  74.4824730  32.6412930
 100.0547050  74.8159840  32.4385860 100.8197960  74.0097910  33.4664800
 101.8359190  76.6895600  34.0254650 101.5072550  75.8747360  33.6456380
 102.7841490  76.6465410  33.9020340  91.1144420  88.5550880  33.3890940
  90.3878480  87.9356170  33.3216890  91.1753570  88.9491490  32.5189020
  98.6762030  75.3994570  31.5805840  97.8933820  75.8740070  31.8602600
  98.3824960  74.4949400  31.4719020 103.2283100  76.1017670  29.6254930
 103.6691190  76.0462770  28.7776530 102.9590690  77.0175680  29.6965110
 105.0921670  75.7332910  27.6363750 105.0310070  74.7894130  27.4894770
 105.8713700  75.8413000  28.1817210  90.0202440  75.7042050  24.1019560
  90.7781800  75.8170930  23.5283590  89.5579610  76.5411250  24.0562990
  96.5616250  77.8181320  27.0921870  95.7490760  77.4438210  26.7517750
  97.0657890  77.0626400  27.3943060 101.0641230  74.4823770  28.3304940
 101.6670600  75.0543980  28.8053460 100.3234220  75.0463210  28.1078840
 104.2075830  74.8845330  23.6045220 104.4026460  75.7828780  23.8712650
 103.4205700  74.6532410  24.0978170  92.3927590  76.2306100  22.6421530
  92.9220350  75.4435900  22.5129480  93.0255910  76.9097290  22.8757060
  94.5865430  75.9681240  25.6966920  93.9568170  75.2668550  25.8637050
  94.0470570  76.7285370  25.4800080  94.7120990  75.2465220  38.1319410
  94.4305260  75.7498820  37.3680230  95.0940690  74.4486970  37.7661540
  92.7644880  88.6305610  22.9233420  92.1353760  89.0990710  23.4719250
  92.8792710  87.7854830  23.3579610 101.3136450  74.6618800  38.7099880
 101.2001900  74.9813410  39.6051400 102.1306190  75.0631310  38.4137160
 100.2194600  82.6811270   9.0734620 100.1388650  81.7665880   8.8026330
  99.8059020  83.1778340   8.3674330  98.3512640  84.4590290  10.9543890
  97.5754740  83.9790730  11.2442460  99.0025570  83.7795940  10.7800050
  92.3678470  84.7710100  11.8319650  91.5363350  84.5158810  12.2316160
  92.9759450  84.8420870  12.5677570 102.3720070  88.8650480   9.7343020
 101.9101600  88.0937720  10.0630190 103.1845620  88.8916550  10.2395470
  92.3479730  88.8050190  12.0277670  92.6507770  87.9147930  11.8487890
  93.0923320  89.3620410  11.7999920  90.7770420  79.7311990   5.6162040
  89.8887120  80.0727960   5.5141920  91.0611610  79.5312310   4.7242870
  88.7403430  82.3317640  11.5001740  89.3119540  81.5639840  11.5005380
  88.7404970  82.6306400  10.5908350  97.7921630  87.1347480  10.9614050
  97.7229910  86.1937420  10.8003180  98.5541490  87.2248890  11.5336620
  89.9828300  77.7402000  13.2870670  89.8031140  76.8427750  13.5673430
  89.5808380  78.2873870  13.9617620  98.8226800  79.9417860  11.1882980
  99.1991620  79.0689740  11.0756650  98.7246310  80.2776560  10.2973420
  92.9531810  78.3143490   6.6500420  93.0598560  79.2147220   6.9569180
  92.0424170  78.2661460   6.3595070 102.6050920  77.4368300   8.1211320
 103.4260540  76.9464870   8.1636800 102.6385000  78.0265960   8.8743160
  90.6014970  80.2362500  11.8953010  91.2825080  80.5000870  12.5140410
  90.2863020  79.3963370  12.2291020  94.7939540  81.2829860  10.9825600
  95.3017760  81.7810830  11.6230620  95.3252780  80.5065060  10.8064960
 106.8950470  79.4535050  14.6854950 106.1902640  79.8416760  14.1670060
 107.1608390  80.1485340  15.2875880  93.0775640  75.9228420  15.2489020
  93.0794080  76.4400810  14.4434920  92.2479950  75.4458600  15.2258950
  99.4646730  86.0347730   6.7478920  98.8464000  86.4997180   6.1841640
  99.9769980  86.7275210   7.1648430  94.3278490  85.5623600  13.4262520
  93.9947870  86.1892520  14.0683590  94.5045170  86.0885480  12.6464190
 102.8412400  79.3768680  10.8938860 102.1367970  79.6653570  11.4741970
 103.2024560  80.1868790  10.5338420  92.7590970  77.6338380  13.2559470
  93.1007780  78.4780430  12.9613340  91.8206780  77.7822120  13.3724810
  93.5397590  87.5304400  15.2411700  94.1571590  88.2055480  14.9596150
  92.6790710  87.9392380  15.1499200  88.8329930  86.7204260   4.1218550
  88.4557910  87.2091360   3.3903450  89.0903000  87.3929540   4.7525080
 104.4575180  88.9943810  13.1566340 103.7738700  89.6642920  13.1483010
 104.9969470  89.1924460  12.3911200 105.9099320  78.8223470  11.2848070
 104.9624230  78.8562450  11.4163500 106.2349310  79.6362420  11.6697430
  96.4418860  75.1220650   9.5804060  96.7493840  74.5667540   8.8639560
  95.5119560  75.2565110   9.3977050 103.2879340  87.5604160   6.9601690
 103.1775670  86.6178490   7.0851110 103.2847590  87.9219800   7.8464450
 101.3919360  85.7417780  13.1994130 101.8088150  85.5277890  12.3647590
 102.1159180  85.9990570  13.7702750  98.8299620  83.1869480   6.3164180
  97.9028900  83.1206860   6.5452650  98.9824440  84.1249610   6.2019420
  98.8168700  79.4586480   3.3131340  97.8772370  79.6200440   3.3983800
  99.1351960  80.1772160   2.7667330 105.3381460  84.1405000  13.2910370
 104.5100090  84.2098090  12.8160500 105.9331940  84.7259310  12.8226200
 102.8596910  84.7489780   6.8199430 102.2409330  84.4109330   6.1725730
 102.8421360  84.1049540   7.5278620 102.3023470  80.9274320  14.2365240
 101.8894650  81.7528030  14.4905230 101.5699420  80.3419360  14.0441600
  94.4356260  83.7134220   9.0983910  94.0313260  83.0011470   8.6029810
  94.5219380  83.3687460   9.9871950  94.9037960  87.4001780  11.2623120
  94.6066250  86.7947250  10.5830900  95.8537780  87.4379090  11.1512480
  93.1484880  80.4877430  12.8782950  93.6999470  80.5972770  12.1036200
  93.6628390  80.8615030  13.5938180  93.9956390  87.1383470  17.9130920
  93.0984920  87.3623440  18.1604320  94.0209260  87.2618410  16.9642320
 101.0361610  83.9876590   3.8272180 101.4754890  83.1499020   3.6810000
 101.7490030  84.6205990   3.9136320  92.8227610  84.0096790  16.4888290
  92.6835380  84.8819590  16.8575690  91.9408970  83.6669600  16.3436230
  99.1456990  88.9272660   7.7953420  99.5852900  89.6696990   7.3808810
  99.0843880  89.1699230   8.7192380  94.6207960  89.9518490  18.6973440
  94.5923390  90.3561440  17.8301870  94.4572930  89.0228850  18.5345040
 104.6178750  75.2419400   2.1413220 104.3051410  75.3346230   3.0412290
 105.3791220  75.8200430   2.0910650  91.1360890  82.6079200   6.5990560
  91.0158490  83.3341290   5.9871830  90.8261780  81.8382110   6.1218470
  88.7746260  85.7794340  12.4059200  88.8526680  85.9143110  11.4614920
  89.3887940  85.0710230  12.5987320  90.0193890  87.4794530   8.8165380
  89.6121970  87.6209120   7.9618980  90.9106900  87.1954690   8.6136590
 105.9756030  87.9258440  17.1537620 106.1019090  87.6870320  16.2354800
 106.0177410  87.0942980  17.6259700 101.5153300  89.4229340   3.7114430
 100.8218460  89.4206630   3.0516710 102.2576160  88.9988660   3.2808600
 105.8280040  79.9790900  18.1187360 105.2124310  80.4870570  17.5902820
 105.5076460  79.0789230  18.0613300  88.8305780  86.8208510  14.9453660
  88.9936820  86.3513870  14.1273030  89.2958230  86.3132070  15.6102500
  93.6024550  75.9514270   9.9814230  93.1592700  76.7323810   9.6498750
  94.1609540  76.2744160  10.6885170  97.8894360  78.8182790  15.5849550
  97.4273730  79.0265810  16.3969490  97.4872470  78.0042140  15.2820220
 102.8898870  80.0391740  16.7146210 102.0392460  79.7397490  17.0355280
 102.7300660  80.2833750  15.8030030  99.9848580  81.5393490  18.8145000
 100.3101990  80.7057240  18.4747230 100.7728910  82.0622010  18.9623330
  96.7183370  75.5724970   4.8620060  96.0937550  75.5684840   5.5873370
  96.6313490  74.7055930   4.4656030  95.6400450  76.4961600  11.8403830
  95.9372780  77.4024430  11.7595850  96.1886010  76.0080380  11.2263400
  93.3938770  81.0747840   7.7095480  93.1679690  80.8585010   8.6142100
  92.6131300  81.5076300   7.3641450 100.6236530  81.0811210   6.3086130
 100.0245420  81.8047010   6.1249750 101.1716140  81.0187990   5.5262580
  95.8337980  81.9733420  18.3755750  95.7381580  81.0328150  18.2256150
  96.6769960  82.1948490  17.9803820  99.2301400  79.7174750   8.3389410
  99.6230970  80.0346950   7.5258100  99.5918250  78.8386630   8.4533930
  90.9648520  78.3847090  16.5289530  90.5711910  79.2322300  16.7362310
  90.2766920  77.7473460  16.7198170  97.5393570  78.4682060  19.5986270
  96.8491890  78.2754260  20.2332360  98.2825870  78.7516700  20.1310570
  88.2665570  76.3075550  10.5619610  87.9778620  76.8778410  11.2744590
  89.0111330  75.8280000  10.9250840  99.8156540  82.3080500  12.4340190
  99.0837660  82.8167310  12.7830290  99.4180880  81.4910480  12.1328970
  96.2533930  78.9834700  10.8392680  96.2569990  78.5424650   9.9897220
  97.1485050  79.3052030  10.9464500  92.1036310  78.8661190   9.7986890
  91.7636360  79.3436420  10.5553940  91.3413630  78.4126310   9.4387990
  96.3154080  79.9846780   3.8299440  96.4366900  79.9433260   4.7785260
  95.9302590  80.8470930   3.6746170 100.2782450  77.7614180  11.8463130
 100.2955190  78.2122830  12.6904980 100.0298030  76.8619820  12.0596570
  95.3275580  82.2947920   3.2282740  94.7592480  81.8466170   2.6018650
  96.0364580  82.6540700   2.6947890 103.7053200  75.1746360  17.6849510
 104.0298970  74.4436020  18.2107490 103.7409710  74.8560000  16.7830500
  90.4044760  86.1959940  17.1049470  90.0199550  85.5553610  17.7032430
  90.7156950  86.8996060  17.6744200  96.5541900  83.0436480  12.5858090
  96.9212030  82.5695050  13.3319430  96.3646960  83.9178050  12.9266430
  89.4182390  77.7880170   8.7151560  89.1329310  77.4235840   9.5530180
  89.3561250  77.0560630   8.1014700  94.3441270  82.0845120  14.9042300
  94.0398340  82.9637100  15.1292660  95.2987730  82.1444910  14.9399740
  92.8723060  86.2906110   5.5009150  92.0985320  85.7503730   5.3407870
  93.6017690  85.7712720   5.1626910 103.6311040  85.2871470  11.2935540
 104.3510160  85.7826760  10.9031650 103.4292860  84.6089360  10.6489410
  99.0920980  76.6809430   5.4364930  98.2785590  76.1822600   5.3610240
  98.8982930  77.5207680   5.0201280  99.0129840  85.3580530  17.1804540
  98.9467150  84.4376200  16.9262130  98.3834980  85.4555970  17.8949180
 101.8069370  81.0529080   3.7327090 102.6948990  81.3646310   3.5578430
 101.7774460  80.1801330   3.3407670  92.9160460  85.9586490   9.1387960
  93.4339130  85.1554750   9.0844850  92.4644480  85.8965630   9.9804790
  97.8029960  87.2252770   4.4115260  98.1445660  87.9695000   3.9158580
  96.9742670  87.5383890   4.7740090  90.4005000  82.9247860  16.0513660
  90.0419940  83.5901710  16.6387000  90.1059560  82.0931410  16.4226280
  93.6018120  83.3832100  18.9353210  93.3018260  83.5289280  18.0381030
  94.3729360  82.8237390  18.8426600  98.9446570  88.1801100  16.9308340
  98.9591110  87.2482060  16.7127250  98.2371670  88.2660860  17.5698110
 104.0783640  82.3640920   3.2006950 103.9947360  82.7955140   2.3503390
 104.7977830  82.8239270   3.6333770 105.1557780  84.8208440  16.2776920
 104.4305970  85.4137220  16.0806310 105.6833240  84.8131980  15.4790290
 105.1070890  89.2183180   5.9289080 104.4647050  88.5638800   6.2032800
 104.7201550  89.6238270   5.1529750 100.6857370  86.5468610   9.7760770
 101.0381190  85.9496740   9.1162140  99.8019700  86.2212840   9.9469020
  96.7720650  87.3066300   7.1831180  97.4591780  87.8535510   7.5638770
  95.9853070  87.8507030   7.2180790  88.9113050  82.9239120   2.6748260
  89.7807900  83.2063920   2.9584180  88.4203370  83.7374990   2.5597070
  96.0747860  84.3112330   6.7956540  96.5310640  85.1217580   7.0216730
  95.7236070  83.9935470   7.6275030  98.3780470  89.8218670  14.0248840
  99.0222690  90.0278050  14.7022260  98.7409910  89.0607070  13.5719690
  91.9759640  74.6549980   7.2679060  91.8474270  74.6467880   8.2163980
  91.1521660  74.9933070   6.9170070  99.6512550  87.8251020  12.7426290
 100.2934780  87.1244180  12.8558460 100.1761900  88.6049460  12.5623180
 103.4968270  88.1099640   2.4665430 103.2705850  87.3930080   3.0590070
 103.1064470  87.8612080   1.6287180 101.4250170  88.6245920  15.9462350
 101.7606410  89.2112610  16.6240270 100.5050510  88.4938630  16.1760140
  88.9753570  76.4141100  16.7285760  88.2612090  76.6138020  17.3338370
  89.3948610  75.6380670  17.1000560 103.0784520  86.0271580   4.1279590
 102.7906220  86.4884270   4.9157470 103.8736690  85.5669350   4.3963810
  97.2538750  88.6737250  19.1150410  96.9335620  87.9546490  19.6596100
  96.5797110  89.3492320  19.1886470  95.2952920  89.5197700   4.0583560
  95.2863020  90.2527390   3.4428070  94.3751280  89.2729280   4.1510520
  90.8959560  84.7412590   4.8030320  90.2887510  85.4811490   4.8125620
  91.3708910  84.8311950   3.9768520 100.4692350  78.9063410  14.4787210
 100.8373170  78.0858620  14.8066780  99.6090550  78.9665300  14.8942860
 103.8354380  77.8620350   5.2874770 103.2067540  77.9666020   4.5733000
 103.3406300  78.0817130   6.0768650  98.2812520  89.5825940   2.7208750
  98.3824500  89.3789930   1.7910730  97.3814260  89.3284220   2.9256530
  95.8038410  80.1406300   6.7032650  95.0954560  80.6092640   7.1446260
  96.0882890  79.4828310   7.3377840  97.4294340  81.5603000  14.7025180
  97.9279590  82.0348820  15.3677030  97.5717290  80.6366520  14.9095210
  99.8353840  76.8656960   8.1428440  99.7121620  76.8843090   7.1937950
 100.7838400  76.9135900   8.2626840  94.0073430  78.4491380   4.0783360
  94.8563960  78.8861530   4.0123550  93.6404700  78.7611640   4.9055420
 104.6361200  77.7770960  15.5453570 104.1334800  78.5176360  15.8847380
 105.4517860  78.1654960  15.2290360 102.9283210  83.0204140   8.9914930
 101.9873350  83.0354370   9.1662620 103.2427280  82.2340100   9.4375230
  92.9064850  84.7023740   2.5518890  93.6728120  84.5905100   3.1144320
  92.9839540  84.0061710   1.8995660  91.6011610  82.1348810   3.2351780
  91.6815200  81.1876320   3.3469180  92.4931360  82.4655690   3.3412440
  89.2871800  88.3517770   6.2127830  88.3611580  88.5938910   6.2033240
  89.7528230  89.1792030   6.0912580 100.2449230  87.5770140  19.4747310
  99.6387390  87.6001740  18.7343060  99.9403340  86.8453180  20.0114560
  89.1282410  83.9563730  18.4707950  89.6321430  83.3771010  19.0424180
  88.3889830  84.2403960  19.0084320  96.1820350  85.3634720  18.0043470
  95.4166020  85.9319720  17.9198140  96.3636310  85.0710930  17.1111700
  99.2708760  85.7397950   2.6296230  98.7218860  86.1867250   3.2738970
  99.8928020  85.2347200   3.1533900 103.3243700  87.0940050  18.5618490
 104.0653170  87.4315810  18.0585950 102.5616380  87.2632110  18.0088260
  91.1605490  82.0993320  19.3658020  91.2010830  81.8007190  20.2743250
  92.0150990  82.5000930  19.2065540  94.9383880  84.6988870   4.5261530
  95.3600300  84.5328740   5.3692920  95.0634720  83.8889100   4.0316670
  93.1011300  80.6785420  17.3332510  92.5707760  80.1876370  16.7055850
  93.7699370  81.1069620  16.7990440 101.9989360  85.1454880  17.0973700
 102.4130380  85.2999960  17.9464120 101.0640360  85.2710100  17.2599480
 102.4711530  82.4851040  19.1012850 103.0532300  81.7303360  19.0133330
 102.6473300  83.0158480  18.3244330  93.5883600  77.6447790  17.4129800
  93.4940470  77.0268540  16.6880670  93.0080990  78.3714080  17.1859710
  96.3545040  76.2021030  14.4457190  95.9062340  76.2245290  13.6002740
  95.7210240  75.8040050  15.0427490  96.7604590  85.0975360  15.0669630
  97.1792700  85.9408090  14.8945870  95.8413220  85.2347400  14.8376410
  99.0968490  82.8291540  16.4507470  99.2164700  82.2332680  17.1902310
  99.9562490  82.8661230  16.0308770 101.4356390  83.3828730  15.0269980
 100.9091610  83.9071350  14.4235120 101.7787730  84.0156120  15.6579710
  95.8637260  79.3712890  17.7083290  96.4536950  79.0628740  18.3961110
  95.0457500  78.8992640  17.8643190 100.6830690  78.9878700  17.9416310
  99.9946210  78.3260240  17.8766300 101.4036710  78.5416970  18.3864770
 101.3131090  75.5830330   4.0006570 101.5933380  74.7398230   4.3565990
 100.5396820  75.8153440   4.5145320  95.8510510  76.8157340   2.4453770
  95.5032510  76.1381330   1.8656220  96.0523280  76.3546850   3.2597160
  91.6555710  87.1765140   2.2927370  92.0930580  87.7194810   2.9484950
  92.1403440  86.3512090   2.3023710  88.8701510  89.9654170   9.7447630
  89.2004520  89.0975230   9.5126270  89.2992510  90.1712690  10.5752590
  93.4663430  88.2963180   7.4049600  93.1658970  88.1728150   8.3053510
  93.3600920  87.4371770   6.9965330 104.9953900  90.3341760  16.7706570
 104.3955890  90.3934320  16.0270490 105.1247800  89.3946740  16.9003420
 106.2355350  88.0759580   2.1076280 105.4048310  88.1436230   2.5783510
 106.4127180  88.9663700   1.8043140 105.6911810  84.8207060   4.6110480
 106.4530720  85.3903710   4.7170170 105.7066180  84.2534260   5.3818790
  89.1916150  83.3444990   8.8418140  88.5364990  83.0756630   8.1977840
  90.0294100  83.2349470   8.3920120 106.6971780  85.6757160   9.4552410
 107.0680610  84.8924480   9.0488380 107.3373710  86.3646260   9.2769710
 103.6805540  87.0593740  14.8682730 102.8665380  87.4890900  15.1308520
 104.0879740  87.6712150  14.2551780 105.7430980  85.1141430   1.7683000
 106.0179820  86.0220310   1.6402220 105.5541720  85.0503960   2.7044990
 102.1406590  78.1386280   3.0636630 102.5591470  77.9517260   2.2233290
 101.8342650  77.2865330   3.3739560 105.6396320  83.0510420   6.7612430
 105.2639920  82.2838350   6.3293720 104.9099440  83.4333120   7.2487360
  90.2292080  83.7297560  13.3821480  90.5965120  83.6424960  14.2617500
  89.6602900  82.9664110  13.2828340 105.0295940  82.1981940  16.3951950
 104.7982030  81.9694690  15.4949900 105.2900490  83.1181490  16.3496840
  89.7808080  80.6406650  17.2879900  88.8864130  80.6073410  17.6273610
  90.3205630  80.8393440  18.0531150 103.4684010  77.4238370  19.1731650
 104.3454190  77.4321770  19.5565650 103.4804850  76.6869210  18.5624000
  88.4054230  80.5543920   4.7843470  87.5018310  80.8174120   4.6095130
  88.8894850  80.8255090   4.0043430 104.9147280  81.2767910  10.0619670
 105.4384760  80.7830560   9.4309840 105.5006700  81.4118270  10.8067240
 105.0937000  81.3607780  13.5839220 104.1439710  81.3271320  13.6984210
 105.2750010  82.2707890  13.3488990  90.9481440  79.6109460   2.6937850
  91.6573140  79.1892680   2.2085130  90.2321380  79.6784690   2.0621200
 104.4047250  80.5341260   6.0012080 104.9006370  80.3012130   6.7860960
 104.2063320  79.6953100   5.5849720  90.2847790  74.9154980  11.6363120
  90.9323980  74.3652360  11.1958280  90.7049630  75.1698130  12.4578930
 105.8334410  79.1702210   8.5349760 105.7233690  79.0158250   9.4732030
 106.5942000  78.6423150   8.2925170 104.1800130  75.1096340  14.9932760
 104.8172350  75.7230480  15.3591950 104.3275020  75.1457000  14.0481990
 106.7224680  77.0010130   1.7755900 107.6473990  76.8691310   1.5674190
 106.7000470  77.0802950   2.7292350 106.7963170  77.7720790   4.4012610
 106.0014670  77.7065910   4.9305520 107.0006450  78.7071430   4.3897960
  90.0379790  75.0710650  14.3788440  89.6894610  75.5274470  15.1446620
  89.7067490  74.1767780  14.4610870  91.6444160  88.2430250  18.5441630
  91.6013790  87.8723160  19.4256090  91.7755170  89.1807820  18.6843450
  95.3450190  89.7989840  14.1451350  95.1041550  90.0664400  13.2581870
  96.2852830  89.9695570  14.2002210  97.5504610  76.2622530  17.9007860
  97.4893500  76.8544360  18.6503270  98.4904990  76.1548490  17.7558120
 100.1879170  75.9192590  17.5400150 100.8019580  76.2371880  16.8781230
 100.7328730  75.4341180  18.1596010  90.7100430  74.5986850  17.6539210
  91.2583420  74.4174900  16.8905320  90.7755740  73.8080960  18.1895520
 100.9287210  74.4824730  13.8669440 100.0547050  74.8159840  13.6642370
 100.8197960  74.0097910  14.6921310 101.8359190  76.6895600  15.2511160
 101.5072550  75.8747360  14.8712890 102.7841490  76.6465410  15.1276850
  91.1144420  88.5550880  14.6147450  90.3878480  87.9356170  14.5473400
  91.1753570  88.9491490  13.7445530  98.6762030  75.3994570  12.8062350
  97.8933820  75.8740070  13.0859110  98.3824960  74.4949400  12.6975530
 103.2283100  76.1017670  10.8511440 103.6691190  76.0462770  10.0033040
 102.9590690  77.0175680  10.9221620 105.0921670  75.7332910   8.8620260
 105.0310070  74.7894130   8.7151280 105.8713700  75.8413000   9.4073720
  90.0202440  75.7042050   5.3276070  90.7781800  75.8170930   4.7540100
  89.5579610  76.5411250   5.2819500  96.5616250  77.8181320   8.3178380
  95.7490760  77.4438210   7.9774260  97.0657890  77.0626400   8.6199570
 101.0641230  74.4823770   9.5561450 101.6670600  75.0543980  10.0309970
 100.3234220  75.0463210   9.3335350 104.2075830  74.8845330   4.8301730
 104.4026460  75.7828780   5.0969160 103.4205700  74.6532410   5.3234680
  92.3927590  76.2306100   3.8678040  92.9220350  75.4435900   3.7385990
  93.0255910  76.9097290   4.1013570  94.5865430  75.9681240   6.9223430
  93.9568170  75.2668550   7.0893560  94.0470570  76.7285370   6.7056590
  94.7120990  75.2465220  19.3575920  94.4305260  75.7498820  18.5936740
  95.0940690  74.4486970  18.9918050  92.7644880  88.6305610   4.1489930
  92.1353760  89.0990710   4.6975760  92.8792710  87.7854830   4.5836120
 101.3136450  74.6618800  19.9356390 101.2001900  74.9813410  20.8307910
 102.1306190  75.0631310  19.6393670 100.2194600  63.9067780  65.3965090
 100.1388650  62.9922390  65.1256800  99.8059020  64.4034850  64.6904800
  98.3512640  65.6846800  67.2774360  97.5754740  65.2047240  67.5672930
  99.0025570  65.0052450  67.1030520  92.3678470  65.9966610  68.1550120
  91.5363350  65.7415320  68.5546630  92.9759450  66.0677380  68.8908040
 102.3720070  70.0906990  66.0573490 101.9101600  69.3194230  66.3860660
 103.1845620  70.1173060  66.5625940  92.3479730  70.0306700  68.3508140
  92.6507770  69.1404440  68.1718360  93.0923320  70.5876920  68.1230390
  90.7770420  60.9568500  61.9392510  89.8887120  61.2984470  61.8372390
  91.0611610  60.7568820  61.0473340  88.7403430  63.5574150  67.8232210
  89.3119540  62.7896350  67.8235850  88.7404970  63.8562910  66.9138820
  98.5983380  72.3765000  65.6777480  97.9794820  72.8322500  65.1071920
  99.4535160  72.5316460  65.2767180  97.7921630  68.3603990  67.2844520
  97.7229910  67.4193930  67.1233650  98.5541490  68.4505400  67.8567090
  89.9828300  58.9658510  69.6101140  89.8031140  58.0684260  69.8903900
  89.5808380  59.5130380  70.2848090  98.8226800  61.1674370  67.5113450
  99.1991620  60.2946250  67.3987120  98.7246310  61.5033070  66.6203890
  92.9531810  59.5400000  62.9730890  93.0598560  60.4403730  63.2799650
  92.0424170  59.4917970  62.6825540 102.6050920  58.6624810  64.4441790
 103.4260540  58.1721380  64.4867270 102.6385000  59.2522470  65.1973630
  90.6014970  61.4619010  68.2183480  91.2825080  61.7257380  68.8370880
  90.2863020  60.6219880  68.5521490  94.7939540  62.5086370  67.3056070
  95.3017760  63.0067340  67.9461090  95.3252780  61.7321570  67.1295430
 106.8950470  60.6791560  71.0085420 106.1902640  61.0673270  70.4900530
 107.1608390  61.3741850  71.6106350  93.0775640  57.1484930  71.5719490
  93.0794080  57.6657320  70.7665390  92.2479950  56.6715110  71.5489420
  99.4646730  67.2604240  63.0709390  98.8464000  67.7253690  62.5072110
  99.9769980  67.9531720  63.4878900  94.3278490  66.7880110  69.7492990
  93.9947870  67.4149030  70.3914060  94.5045170  67.3141990  68.9694660
 102.8412400  60.6025190  67.2169330 102.1367970  60.8910080  67.7972440
 103.2024560  61.4125300  66.8568890  92.7590970  58.8594890  69.5789940
  93.1007780  59.7036940  69.2843810  91.8206780  59.0078630  69.6955280
  93.5397590  68.7560910  71.5642170  94.1571590  69.4311990  71.2826620
  92.6790710  69.1648890  71.4729670  88.8329930  67.9460770  60.4449020
  88.4557910  68.4347870  59.7133920  89.0903000  68.6186050  61.0755550
 104.4575180  70.2200320  69.4796810 103.7738700  70.8899430  69.4713480
 104.9969470  70.4180970  68.7141670 105.9099320  60.0479980  67.6078540
 104.9624230  60.0818960  67.7393970 106.2349310  60.8618930  67.9927900
  96.4418860  56.3477160  65.9034530  96.7493840  55.7924050  65.1870030
  95.5119560  56.4821620  65.7207520 101.9933920  72.0644450  68.1941990
 102.0061080  71.6606740  67.3264250 101.4409140  72.8391740  68.0903420
 103.2879340  68.7860670  63.2832160 103.1775670  67.8435000  63.4081580
 103.2847590  69.1476310  64.1694920 101.3919360  66.9674290  69.5224600
 101.8088150  66.7534400  68.6878060 102.1159180  67.2247080  70.0933220
  98.8299620  64.4125990  62.6394650  97.9028900  64.3463370  62.8683120
  98.9824440  65.3506120  62.5249890  98.8168700  60.6842990  59.6361810
  97.8772370  60.8456950  59.7214270  99.1351960  61.4028670  59.0897800
 105.3381460  65.3661510  69.6140840 104.5100090  65.4354600  69.1390970
 105.9331940  65.9515820  69.1456670 102.8596910  65.9746290  63.1429900
 102.2409330  65.6365840  62.4956200 102.8421360  65.3306050  63.8509090
 102.3023470  62.1530830  70.5595710 101.8894650  62.9784540  70.8135700
 101.5699420  61.5675870  70.3672070  94.4356260  64.9390730  65.4214380
  94.0313260  64.2267980  64.9260280  94.5219380  64.5943970  66.3102420
  94.9037960  68.6258290  67.5853590  94.6066250  68.0203760  66.9061370
  95.8537780  68.6635600  67.4742950  93.1484880  61.7133940  69.2013420
  93.6999470  61.8229280  68.4266670  93.6628390  62.0871540  69.9168650
 102.9923570  72.1990160  71.2476690 102.5154130  73.0062350  71.0549300
 102.3085360  71.5468490  71.4002900  93.9956390  68.3639980  74.2361390
  93.0984920  68.5879950  74.4834790  94.0209260  68.4874920  73.2872790
 101.0361610  65.2133100  60.1502650 101.4754890  64.3755530  60.0040470
 101.7490030  65.8462500  60.2366790  92.8227610  65.2353300  72.8118760
  92.6835380  66.1076100  73.1806160  91.9408970  64.8926110  72.6666700
  99.1456990  70.1529170  64.1183890  99.5852900  70.8953500  63.7039280
  99.0843880  70.3955740  65.0422850  94.6207960  71.1775000  75.0203910
  94.5923390  71.5817950  74.1532340  94.4572930  70.2485360  74.8575510
 104.6178750  56.4675910  58.4643690 104.3051410  56.5602740  59.3642760
 105.3791220  57.0456940  58.4141120  91.1360890  63.8335710  62.9221030
  91.0158490  64.5597800  62.3102300  90.8261780  63.0638620  62.4448940
  88.7746260  67.0050850  68.7289670  88.8526680  67.1399620  67.7845390
  89.3887940  66.2966740  68.9217790  90.0193890  68.7051040  65.1395850
  89.6121970  68.8465630  64.2849450  90.9106900  68.4211200  64.9367060
 105.9756030  69.1514950  73.4768090 106.1019090  68.9126830  72.5585270
 106.0177410  68.3199490  73.9490170  99.8372770  72.8542950  72.0462900
 100.3517440  72.7650960  72.8485330  98.9941850  73.2002650  72.3390810
 101.8127170  73.1398290  61.4746900 101.6528310  72.8501230  62.3728730
 101.6473880  72.3638420  60.9392130  94.2915550  72.9196820  63.2518520
  94.1158030  72.0032360  63.0386320  93.4371290  73.2784110  63.4916320
 101.5153300  70.6485850  60.0344900 100.8218460  70.6463140  59.3747180
 102.2576160  70.2245170  59.6039070 101.0803230  72.2748560  64.1093390
 101.5360180  71.4937940  64.4232010 101.4195750  72.9855380  64.6534570
 105.8280040  61.2047410  74.4417830 105.2124310  61.7127080  73.9133290
 105.5076460  60.3045740  74.3843770  88.8305780  68.0465020  71.2684130
  88.9936820  67.5770380  70.4503500  89.2958230  67.5388580  71.9332970
  93.6024550  57.1770780  66.3044700  93.1592700  57.9580320  65.9729220
  94.1609540  57.5000670  67.0115640  97.8894360  60.0439300  71.9080020
  97.4273730  60.2522320  72.7199960  97.4872470  59.2298650  71.6050690
 102.8898870  61.2648250  73.0376680 102.0392460  60.9654000  73.3585750
 102.7300660  61.5090260  72.1260500  99.9848580  62.7650000  75.1375470
 100.3101990  61.9313750  74.7977700 100.7728910  63.2878520  75.2853800
  96.7183370  56.7981480  61.1850530  96.0937550  56.7941350  61.9103840
  96.6313490  55.9312440  60.7886500  95.6400450  57.7218110  68.1634300
  95.9372780  58.6280940  68.0826320  96.1886010  57.2336890  67.5493870
  93.3938770  62.3004350  64.0325950  93.1679690  62.0841520  64.9372570
  92.6131300  62.7332810  63.6871920 100.6236530  62.3067720  62.6316600
 100.0245420  63.0303520  62.4480220 101.1716140  62.2444500  61.8493050
  95.8337980  63.1989930  74.6986220  95.7381580  62.2584660  74.5486620
  96.6769960  63.4205000  74.3034290  99.2301400  60.9431260  64.6619880
  99.6230970  61.2603460  63.8488570  99.5918250  60.0643140  64.7764400
  90.9648520  59.6103600  72.8520000  90.5711910  60.4578810  73.0592780
  90.2766920  58.9729970  73.0428640  88.2665570  57.5332060  66.8850080
  87.9778620  58.1034920  67.5975060  89.0111330  57.0536510  67.2481310
  88.4535800  61.4752180  58.0952800  88.3710470  62.4182940  58.2367790
  88.1018860  61.3327090  57.2165150  99.8156540  63.5337010  68.7570660
  99.0837660  64.0423820  69.1060760  99.4180880  62.7166990  68.4559440
  96.2533930  60.2091210  67.1623150  96.2569990  59.7681160  66.3127690
  97.1485050  60.5308540  67.2694970  92.1036310  60.0917700  66.1217360
  91.7636360  60.5692930  66.8784410  91.3413630  59.6382820  65.7618460
  96.3154080  61.2103290  60.1529910  96.4366900  61.1689770  61.1015730
  95.9302590  62.0727440  59.9976640 100.2782450  58.9870690  68.1693600
 100.2955190  59.4379340  69.0135450 100.0298030  58.0876330  68.3827040
  95.3275580  63.5204430  59.5513210  94.7592480  63.0722680  58.9249120
  96.0364580  63.8797210  59.0178360 103.7053200  56.4002870  74.0079980
 104.0298970  55.6692530  74.5337960 103.7409710  56.0816510  73.1060970
  90.4044760  67.4216450  73.4279940  90.0199550  66.7810120  74.0262900
  90.7156950  68.1252570  73.9974670  96.5541900  64.2692990  68.9088560
  96.9212030  63.7951560  69.6549900  96.3646960  65.1434560  69.2496900
  89.4182390  59.0136680  65.0382030  89.1329310  58.6492350  65.8760650
  89.3561250  58.2817140  64.4245170  94.3441270  63.3101630  71.2272770
  94.0398340  64.1893610  71.4523130  95.2987730  63.3701420  71.2630210
  92.8723060  67.5162620  61.8239620  92.0985320  66.9760240  61.6638340
  93.6017690  66.9969230  61.4857380 103.6311040  66.5127980  67.6166010
 104.3510160  67.0083270  67.2262120 103.4292860  65.8345870  66.9719880
  99.0920980  57.9065940  61.7595400  98.2785590  57.4079110  61.6840710
  98.8982930  58.7464190  61.3431750  99.0129840  66.5837040  73.5035010
  98.9467150  65.6632710  73.2492600  98.3834980  66.6812480  74.2179650
 101.8069370  62.2785590  60.0557560 102.6948990  62.5902820  59.8808900
 101.7774460  61.4057840  59.6638140  92.9160460  67.1843000  65.4618430
  93.4339130  66.3811260  65.4075320  92.4644480  67.1222140  66.3035260
  97.8029960  68.4509280  60.7345730  98.1445660  69.1951510  60.2389050
  96.9742670  68.7640400  61.0970560  90.4005000  64.1504370  72.3744130
  90.0419940  64.8158220  72.9617470  90.1059560  63.3187920  72.7456750
  93.6018120  64.6088610  75.2583680  93.3018260  64.7545790  74.3611500
  94.3729360  64.0493900  75.1657070  98.9446570  69.4057610  73.2538810
  98.9591110  68.4738570  73.0357720  98.2371670  69.4917370  73.8928580
 104.0783640  63.5897430  59.5237420 103.9947360  64.0211650  58.6733860
 104.7977830  64.0495780  59.9564240 105.1557780  66.0464950  72.6007390
 104.4305970  66.6393730  72.4036780 105.6833240  66.0388490  71.8020760
 105.1070890  70.4439690  62.2519550 104.4647050  69.7895310  62.5263270
 104.7201550  70.8494780  61.4760220 100.6857370  67.7725120  66.0991240
 101.0381190  67.1753250  65.4392610  99.8019700  67.4469350  66.2699490
  96.7720650  68.5322810  63.5061650  97.4591780  69.0792020  63.8869240
  95.9853070  69.0763540  63.5411260  88.9113050  64.1495630  58.9978730
  89.7807900  64.4320430  59.2814650  88.4203370  64.9631500  58.8827540
  96.0747860  65.5368840  63.1187010  96.5310640  66.3474090  63.3447200
  95.7236070  65.2191980  63.9505500  98.3780470  71.0475180  70.3479310
  99.0222690  71.2534560  71.0252730  98.7409910  70.2863580  69.8950160
  91.9759640  55.8806490  63.5909530  91.8474270  55.8724390  64.5394450
  91.1521660  56.2189580  63.2400540  99.6512550  69.0507530  69.0656760
 100.2934780  68.3500690  69.1788930 100.1761900  69.8305970  68.8853650
 103.4968270  69.3356150  58.7895900 103.2705850  68.6186590  59.3820540
 103.1064470  69.0868590  57.9517650 101.4250170  69.8502430  72.2692820
 101.7606410  70.4369120  72.9470740 100.5050510  69.7195140  72.4990610
  89.2784300  73.3623010  59.5640360  89.6381940  73.9612350  58.9097630
  89.1376640  73.9082900  60.3375390  88.9753570  57.6397610  73.0516230
  88.2612090  57.8394530  73.6568840  89.3948610  56.8637180  73.4231030
 103.0784520  67.2528090  60.4510060 102.7906220  67.7140780  61.2387940
 103.8736690  66.7925860  60.7194280  89.2626160  71.6277870  74.0382760
  89.3717280  70.6872610  73.8978150  88.6106720  71.8932620  73.3896490
  97.2538750  69.8993760  75.4380880  96.9335620  69.1803000  75.9826570
  96.5797110  70.5748830  75.5116940  95.2952920  70.7454210  60.3814030
  95.2863020  71.4783900  59.7658540  94.3751280  70.4985790  60.4740990
  90.8959560  65.9669100  61.1260790  90.2887510  66.7068000  61.1356090
  91.3708910  66.0568460  60.2998990 100.4692350  60.1319920  70.8017680
 100.8373170  59.3115130  71.1297250  99.6090550  60.1921810  71.2173330
 103.8354380  59.0876860  61.6105240 103.2067540  59.1922530  60.8963470
 103.3406300  59.3073640  62.3999120  98.2812520  70.8082450  59.0439220
  98.3824500  70.6046440  58.1141200  97.3814260  70.5540730  59.2487000
  95.8038410  61.3662810  63.0263120  95.0954560  61.8349150  63.4676730
  96.0882890  60.7084820  63.6608310  97.4294340  62.7859510  71.0255650
  97.9279590  63.2605330  71.6907500  97.5717290  61.8623030  71.2325680
  99.8353840  58.0913470  64.4658910  99.7121620  58.1099600  63.5168420
 100.7838400  58.1392410  64.5857310  96.9230630  73.3268770  63.7386890
  97.1772130  73.2890160  62.8166260  95.9743110  73.2002100  63.7315140
  94.0073430  59.6747890  60.4013830  94.8563960  60.1118040  60.3354020
  93.6404700  59.9868150  61.2285890 104.6361200  59.0027470  71.8684040
 104.1334800  59.7432870  72.2077850 105.4517860  59.3911470  71.5520830
 102.9283210  64.2460650  65.3145400 101.9873350  64.2610880  65.4893090
 103.2427280  63.4596610  65.7605700  92.9064850  65.9280250  58.8749360
  93.6728120  65.8161610  59.4374790  92.9839540  65.2318220  58.2226130
  91.6011610  63.3605320  59.5582250  91.6815200  62.4132830  59.6699650
  92.4931360  63.6912200  59.6642910 104.9308790  71.4169500  66.9899660
 105.0556210  72.2400670  67.4623470 105.7974350  71.2060230  66.6423810
  92.4026320  73.5100710  66.6616790  93.1388800  72.9616170  66.9325360
  92.7867240  74.3756720  66.5222780  89.2871800  69.5774280  62.5358300
  88.3611580  69.8195420  62.5263710  89.7528230  70.4048540  62.4143050
  95.5128630  72.6831020  58.4842360  96.3057240  72.9719850  58.0324150
  94.9932980  72.2523190  57.8054840 101.6749600  72.5306940  74.4087190
 102.6271350  72.4464960  74.3587430 101.5277820  73.1948650  75.0820980
 104.5658800  71.9101150  59.9079100 104.2800310  71.4966290  59.0933280
 104.3678350  72.8388860  59.7879620  89.1282410  65.1820240  74.7938420
  89.6321430  64.6027520  75.3654650  88.3889830  65.4660470  75.3314790
  96.0306030  67.9034430  58.3484710  95.9256670  67.2886780  59.0746090
  95.8630250  67.3800320  57.5647720  96.1820350  66.5891230  74.3273940
  95.4166020  67.1576230  74.2428610  96.3636310  66.2967440  73.4342170
  99.2708760  66.9654460  58.9526700  98.7218860  67.4123760  59.5969440
  99.8928020  66.4603710  59.4764370 103.3243700  68.3196560  74.8848960
 104.0653170  68.6572320  74.3816420 102.5616380  68.4888620  74.3318730
  94.9383880  65.9245380  60.8492000  95.3600300  65.7585250  61.6923390
  95.0634720  65.1145610  60.3547140  93.1011300  61.9041930  73.6562980
  92.5707760  61.4132880  73.0286320  93.7699370  62.3326130  73.1220910
  97.4511520  64.9482990  58.0969100  97.9717180  64.2332010  57.7310250
  98.0979920  65.5868860  58.3969610 101.9989360  66.3711390  73.4204170
 102.4130380  66.5256470  74.2694590 101.0640360  66.4966610  73.5829950
 102.4711530  63.7107550  75.4243320 103.0532300  62.9559870  75.3363800
 102.6473300  64.2414990  74.6474800  93.5883600  58.8704300  73.7360270
  93.4940470  58.2525050  73.0111140  93.0080990  59.5970590  73.5090180
  96.3545040  57.4277540  70.7687660  95.9062340  57.4501800  69.9233210
  95.7210240  57.0296560  71.3657960  96.7604590  66.3231870  71.3900100
  97.1792700  67.1664600  71.2176340  95.8413220  66.4603910  71.1606880
  99.0968490  64.0548050  72.7737940  99.2164700  63.4589190  73.5132780
  99.9562490  64.0917740  72.3539240 101.4356390  64.6085240  71.3500450
 100.9091610  65.1327860  70.7465590 101.7787730  65.2412630  71.9810180
  93.8342780  61.9978610  57.7950160  93.6331840  61.1345970  58.1563500
  93.6634830  61.9111970  56.8571760  94.6112010  72.6284880  72.5057830
  94.0733100  73.3530940  72.1866530  94.8645970  72.1515220  71.7155170
  95.8637260  60.5969400  74.0313760  96.4536950  60.2885250  74.7191580
  95.0457500  60.1249150  74.1873660 100.6830690  60.2135210  74.2646780
  99.9946210  59.5516750  74.1996770 101.4036710  59.7673480  74.7095240
 101.3131090  56.8086840  60.3237040 101.5933380  55.9654740  60.6796460
 100.5396820  57.0409950  60.8375790  92.6325580  59.0979230  57.7828040
  92.9351480  59.1046660  56.8747190  93.3720170  58.7477090  58.2795700
  97.4674220  73.8636090  72.7644480  97.3932920  74.7671230  73.0716850
  96.5653060  73.5447990  72.7366550  95.8510510  58.0413850  58.7684240
  95.5032510  57.3637840  58.1886690  96.0523280  57.5803360  59.5827630
  98.0159550  73.0294600  60.3870840  98.9110340  73.3679570  60.4089600
  98.0477180  72.3074010  59.7595120  91.6555710  68.4021650  58.6157840
  92.0930580  68.9451320  59.2715420  92.1403440  67.5768600  58.6254180
  88.8701510  71.1910680  66.0678100  89.2004520  70.3231740  65.8356740
  89.2992510  71.3969200  66.8983060  93.4663430  69.5219690  63.7280070
  93.1658970  69.3984660  64.6283980  93.3600920  68.6628280  63.3195800
  89.3591720  72.0581270  68.8059730  88.9222710  72.2382070  69.6383880
  89.9269400  72.8155890  68.6641450 104.9953900  71.5598270  73.0937040
 104.3955890  71.6190830  72.3500960 105.1247800  70.6203250  73.2233890
 106.2355350  69.3016090  58.4306750 105.4048310  69.3692740  58.9013980
 106.4127180  70.1920210  58.1273610 105.6911810  66.0463570  60.9340950
 106.4530720  66.6160220  61.0400640 105.7066180  65.4790770  61.7049260
  89.1916150  64.5701500  65.1648610  88.5364990  64.3013140  64.5208310
  90.0294100  64.4605980  64.7150590 106.6971780  66.9013670  65.7782880
 107.0680610  66.1180990  65.3718850 107.3373710  67.5902770  65.6000180
 103.6805540  68.2850250  71.1913200 102.8665380  68.7147410  71.4538990
 104.0879740  68.8968660  70.5782250 105.7430980  66.3397940  58.0913470
 106.0179820  67.2476820  57.9632690 105.5541720  66.2760470  59.0275460
 102.1406590  59.3642790  59.3867100 102.5591470  59.1773770  58.5463760
 101.8342650  58.5121840  59.6970030 105.6396320  64.2766930  63.0842900
 105.2639920  63.5094860  62.6524190 104.9099440  64.6589630  63.5717830
  90.2292080  64.9554070  69.7051950  90.5965120  64.8681470  70.5847970
  89.6602900  64.1920620  69.6058810 105.0295940  63.4238450  72.7182420
 104.7982030  63.1951200  71.8180370 105.2900490  64.3438000  72.6727310
  89.7808080  61.8663160  73.6110370  88.8864130  61.8329920  73.9504080
  90.3205630  62.0649950  74.3761620 103.4684010  58.6494880  75.4962120
 104.3454190  58.6578280  75.8796120 103.4804850  57.9125720  74.8854470
  88.4054230  61.7800430  61.1073940  87.5018310  62.0430630  60.9325600
  88.8894850  62.0511600  60.3273900 104.9147280  62.5024420  66.3850140
 105.4384760  62.0087070  65.7540310 105.5006700  62.6374780  67.1297710
 105.0937000  62.5864290  69.9069690 104.1439710  62.5527830  70.0214680
 105.2750010  63.4964400  69.6719460  90.9481440  60.8365970  59.0168320
  91.6573140  60.4149190  58.5315600  90.2321380  60.9041200  58.3851670
  90.5955600  56.8905300  58.0570970  91.3183730  57.4314240  58.3752190
  90.8680120  56.6168720  57.1812510 104.4047250  61.7597770  62.3242550
 104.9006370  61.5268640  63.1091430 104.2063320  60.9209610  61.9080190
  90.2847790  56.1411490  67.9593590  90.9323980  55.5908870  67.5188750
  90.7049630  56.3954640  68.7809400 105.8334410  60.3958720  64.8580230
 105.7233690  60.2414760  65.7962500 106.5942000  59.8679660  64.6155640
 104.1800130  56.3352850  71.3163230 104.8172350  56.9486990  71.6822420
 104.3275020  56.3713510  70.3712460 106.7224680  58.2266640  58.0986370
 107.6473990  58.0947820  57.8904660 106.7000470  58.3059460  59.0522820
 106.7963170  58.9977300  60.7243080 106.0014670  58.9322420  61.2535990
 107.0006450  59.9327940  60.7128430 103.7381590  73.0368850  64.7181470
 104.3340660  72.7153420  64.0415890 103.9959740  72.5640670  65.5094740
  90.0379790  56.2967160  70.7018910  89.6894610  56.7530980  71.4677090
  89.7067490  55.4024290  70.7841340  91.6444160  69.4686760  74.8672100
  91.6013790  69.0979670  75.7486560  91.7755170  70.4064330  75.0073920
  95.3450190  71.0246350  70.4681820  95.1041550  71.2920910  69.5812340
  96.2852830  71.1952080  70.5232680  97.5504610  57.4879040  74.2238330
  97.4893500  58.0800870  74.9733740  98.4904990  57.3805000  74.0788590
 100.1879170  57.1449100  73.8630620 100.8019580  57.4628390  73.2011700
 100.7328730  56.6597690  74.4826480 106.6054350  73.0440730  71.2692460
 106.1112630  73.4409600  70.5519590 105.9967640  72.4189940  71.6629740
  90.7100430  55.8243360  73.9769680  91.2583420  55.6431410  73.2135790
  90.7755740  55.0337470  74.5125990  91.4832190  72.4149010  71.9869880
  90.8892510  72.2833710  72.7259920  91.4756030  71.5787150  71.5211980
 100.9287210  55.7081240  70.1899910 100.0547050  56.0416350  69.9872840
 100.8197960  55.2354420  71.0151780 101.8359190  57.9152110  71.5741630
 101.5072550  57.1003870  71.1943360 102.7841490  57.8721920  71.4507320
 104.2893800  73.6864150  68.5479200 103.8296770  74.4379960  68.1737220
 103.6606260  72.9670620  68.4894000  91.1144420  69.7807390  70.9377920
  90.3878480  69.1612680  70.8703870  91.1753570  70.1748000  70.0676000
  94.7189520  71.9952390  67.7227330  95.2354540  71.3839750  67.1975590
  95.3686900  72.4981170  68.2138340  97.4585020  72.8860880  68.5496310
  97.7462830  72.6315180  67.6729320  97.9708240  72.3338240  69.1401880
  98.6762030  56.6251080  69.1292820  97.8933820  57.0996580  69.4089580
  98.3824960  55.7205910  69.0206000 103.2283100  57.3274180  67.1741910
 103.6691190  57.2719280  66.3263510 102.9590690  58.2432190  67.2452090
 105.0921670  56.9589420  65.1850730 105.0310070  56.0150640  65.0381750
 105.8713700  57.0669510  65.7304190  89.3974420  73.0981780  64.1474680
  89.2296460  72.4652460  64.8456570  88.5308930  73.3041180  63.7968870
  90.0202440  56.9298560  61.6506540  90.7781800  57.0427440  61.0770570
  89.5579610  57.7667760  61.6049970  96.5616250  59.0437830  64.6408850
  95.7490760  58.6694720  64.3004730  97.0657890  58.2882910  64.9430040
 101.0641230  55.7080280  65.8791920 101.6670600  56.2800490  66.3540440
 100.3234220  56.2719720  65.6565820 104.2075830  56.1101840  61.1532200
 104.4026460  57.0085290  61.4199630 103.4205700  55.8788920  61.6465150
  91.0037120  71.7915010  61.5924820  90.4784740  72.1723040  60.8886780
  90.9281700  72.4165780  62.3134530  92.3927590  57.4562610  60.1908510
  92.9220350  56.6692410  60.0616460  93.0255910  58.1353800  60.4244040
  94.5865430  57.1937750  63.2453900  93.9568170  56.4925060  63.4124030
  94.0470570  57.9541880  63.0287060  97.5257380  73.8076980  75.9164510
  98.4524690  73.5721250  75.9600470  97.5107810  74.6348980  75.4350540
 105.7602440  73.3502550  62.9138760 105.9354630  72.6640290  62.2699680
 105.0624010  73.8749600  62.5215430  94.7120990  56.4721730  75.6806390
  94.4305260  56.9755330  74.9167210  95.0940690  55.6743480  75.3148520
  93.6030090  73.7397390  60.4674070  94.3348910  73.4556670  59.9197960
  93.8623760  73.5010670  61.3573450  92.7644880  69.8562120  60.4720400
  92.1353760  70.3247220  61.0206230  92.8792710  69.0111340  60.9066590
 100.2194600  63.9067780  46.6221600 100.1388650  62.9922390  46.3513310
  99.8059020  64.4034850  45.9161310  98.3512640  65.6846800  48.5030870
  97.5754740  65.2047240  48.7929440  99.0025570  65.0052450  48.3287030
 102.3720070  70.0906990  47.2830000 101.9101600  69.3194230  47.6117170
 103.1845620  70.1173060  47.7882450  92.3479730  70.0306700  49.5764650
  92.6507770  69.1404440  49.3974870  93.0923320  70.5876920  49.3486900
  98.5983380  72.3765000  46.9033990  97.9794820  72.8322500  46.3328430
  99.4535160  72.5316460  46.5023690  97.7921630  68.3603990  48.5101030
  97.7229910  67.4193930  48.3490160  98.5541490  68.4505400  49.0823600
  89.9828300  58.9658510  50.8357650  89.8031140  58.0684260  51.1160410
  89.5808380  59.5130380  51.5104600  94.7939540  62.5086370  48.5312580
  95.3017760  63.0067340  49.1717600  95.3252780  61.7321570  48.3551940
 106.8950470  60.6791560  52.2341930 106.1902640  61.0673270  51.7157040
 107.1608390  61.3741850  52.8362860  93.0775640  57.1484930  52.7976000
  93.0794080  57.6657320  51.9921900  92.2479950  56.6715110  52.7745930
  99.4646730  67.2604240  44.2965900  98.8464000  67.7253690  43.7328620
  99.9769980  67.9531720  44.7135410  94.3278490  66.7880110  50.9749500
  93.9947870  67.4149030  51.6170570  94.5045170  67.3141990  50.1951170
 102.8412400  60.6025190  48.4425840 102.1367970  60.8910080  49.0228950
 103.2024560  61.4125300  48.0825400  92.7590970  58.8594890  50.8046450
  93.1007780  59.7036940  50.5100320  91.8206780  59.0078630  50.9211790
  93.5397590  68.7560910  52.7898680  94.1571590  69.4311990  52.5083130
  92.6790710  69.1648890  52.6986180 104.4575180  70.2200320  50.7053320
 103.7738700  70.8899430  50.6969990 104.9969470  70.4180970  49.9398180
 105.9099320  60.0479980  48.8335050 104.9624230  60.0818960  48.9650480
 106.2349310  60.8618930  49.2184410 101.9933920  72.0644450  49.4198500
 102.0061080  71.6606740  48.5520760 101.4409140  72.8391740  49.3159930
 103.2879340  68.7860670  44.5088670 103.1775670  67.8435000  44.6338090
 103.2847590  69.1476310  45.3951430 101.3919360  66.9674290  50.7481110
 101.8088150  66.7534400  49.9134570 102.1159180  67.2247080  51.3189730
 105.3381460  65.3661510  50.8397350 104.5100090  65.4354600  50.3647480
 105.9331940  65.9515820  50.3713180 102.8596910  65.9746290  44.3686410
 102.2409330  65.6365840  43.7212710 102.8421360  65.3306050  45.0765600
 102.3023470  62.1530830  51.7852220 101.8894650  62.9784540  52.0392210
 101.5699420  61.5675870  51.5928580  94.4356260  64.9390730  46.6470890
  94.0313260  64.2267980  46.1516790  94.5219380  64.5943970  47.5358930
  94.9037960  68.6258290  48.8110100  94.6066250  68.0203760  48.1317880
  95.8537780  68.6635600  48.6999460  93.1484880  61.7133940  50.4269930
  93.6999470  61.8229280  49.6523180  93.6628390  62.0871540  51.1425160
 102.9923570  72.1990160  52.4733200 102.5154130  73.0062350  52.2805810
 102.3085360  71.5468490  52.6259410  93.9956390  68.3639980  55.4617900
  93.0984920  68.5879950  55.7091300  94.0209260  68.4874920  54.5129300
 101.0361610  65.2133100  41.3759160 101.4754890  64.3755530  41.2296980
 101.7490030  65.8462500  41.4623300  92.8227610  65.2353300  54.0375270
  92.6835380  66.1076100  54.4062670  91.9408970  64.8926110  53.8923210
  99.1456990  70.1529170  45.3440400  99.5852900  70.8953500  44.9295790
  99.0843880  70.3955740  46.2679360  94.6207960  71.1775000  56.2460420
  94.5923390  71.5817950  55.3788850  94.4572930  70.2485360  56.0832020
 104.6178750  56.4675910  39.6900200 104.3051410  56.5602740  40.5899270
 105.3791220  57.0456940  39.6397630 106.5722780  71.9602100  57.5424590
 107.0482500  72.4384990  58.2213670 107.1929940  71.8919590  56.8170090
 105.9756030  69.1514950  54.7024600 106.1019090  68.9126830  53.7841780
 106.0177410  68.3199490  55.1746680  99.8372770  72.8542950  53.2719410
 100.3517440  72.7650960  54.0741840  98.9941850  73.2002650  53.5647320
 101.8127170  73.1398290  42.7003410 101.6528310  72.8501230  43.5985240
 101.6473880  72.3638420  42.1648640  94.2915550  72.9196820  44.4775030
  94.1158030  72.0032360  44.2642830  93.4371290  73.2784110  44.7172830
 101.5153300  70.6485850  41.2601410 100.8218460  70.6463140  40.6003690
 102.2576160  70.2245170  40.8295580 101.0803230  72.2748560  45.3349900
 101.5360180  71.4937940  45.6488520 101.4195750  72.9855380  45.8791080
 105.8280040  61.2047410  55.6674340 105.2124310  61.7127080  55.1389800
 105.5076460  60.3045740  55.6100280  97.8894360  60.0439300  53.1336530
  97.4273730  60.2522320  53.9456470  97.4872470  59.2298650  52.8307200
 102.8898870  61.2648250  54.2633190 102.0392460  60.9654000  54.5842260
 102.7300660  61.5090260  53.3517010  99.9848580  62.7650000  56.3631980
 100.3101990  61.9313750  56.0234210 100.7728910  63.2878520  56.5110310
  95.6400450  57.7218110  49.3890810  95.9372780  58.6280940  49.3082830
  96.1886010  57.2336890  48.7750380  95.8337980  63.1989930  55.9242730
  95.7381580  62.2584660  55.7743130  96.6769960  63.4205000  55.5290800
  90.9648520  59.6103600  54.0776510  90.5711910  60.4578810  54.2849290
  90.2766920  58.9729970  54.2685150  97.5393570  59.6938570  57.1473250
  96.8491890  59.5010770  57.7819340  98.2825870  59.9773210  57.6797550
  99.8156540  63.5337010  49.9827170  99.0837660  64.0423820  50.3317270
  99.4180880  62.7166990  49.6815950  92.1036310  60.0917700  47.3473870
  91.7636360  60.5692930  48.1040920  91.3413630  59.6382820  46.9874970
 103.7053200  56.4002870  55.2336490 104.0298970  55.6692530  55.7594470
 103.7409710  56.0816510  54.3317480  90.4044760  67.4216450  54.6536450
  90.0199550  66.7810120  55.2519410  90.7156950  68.1252570  55.2231180
  96.5541900  64.2692990  50.1345070  96.9212030  63.7951560  50.8806410
  96.3646960  65.1434560  50.4753410  94.3441270  63.3101630  52.4529280
  94.0398340  64.1893610  52.6779640  95.2987730  63.3701420  52.4886720
  92.8723060  67.5162620  43.0496130  92.0985320  66.9760240  42.8894850
  93.6017690  66.9969230  42.7113890 103.6311040  66.5127980  48.8422520
 104.3510160  67.0083270  48.4518630 103.4292860  65.8345870  48.1976390
  99.0129840  66.5837040  54.7291520  98.9467150  65.6632710  54.4749110
  98.3834980  66.6812480  55.4436160  92.9160460  67.1843000  46.6874940
  93.4339130  66.3811260  46.6331830  92.4644480  67.1222140  47.5291770
  97.8029960  68.4509280  41.9602240  98.1445660  69.1951510  41.4645560
  96.9742670  68.7640400  42.3227070  90.4005000  64.1504370  53.6000640
  90.0419940  64.8158220  54.1873980  90.1059560  63.3187920  53.9713260
  93.6018120  64.6088610  56.4840190  93.3018260  64.7545790  55.5868010
  94.3729360  64.0493900  56.3913580  98.9446570  69.4057610  54.4795320
  98.9591110  68.4738570  54.2614230  98.2371670  69.4917370  55.1185090
 104.0783640  63.5897430  40.7493930 103.9947360  64.0211650  39.8990370
 104.7977830  64.0495780  41.1820750 105.1557780  66.0464950  53.8263900
 104.4305970  66.6393730  53.6293290 105.6833240  66.0388490  53.0277270
 105.1070890  70.4439690  43.4776060 104.4647050  69.7895310  43.7519780
 104.7201550  70.8494780  42.7016730 100.6857370  67.7725120  47.3247750
 101.0381190  67.1753250  46.6649120  99.8019700  67.4469350  47.4956000
  96.7720650  68.5322810  44.7318160  97.4591780  69.0792020  45.1125750
  95.9853070  69.0763540  44.7667770  98.3780470  71.0475180  51.5735820
  99.0222690  71.2534560  52.2509240  98.7409910  70.2863580  51.1206670
  99.6512550  69.0507530  50.2913270 100.2934780  68.3500690  50.4045440
 100.1761900  69.8305970  50.1110160 103.4968270  69.3356150  40.0152410
 103.2705850  68.6186590  40.6077050 103.1064470  69.0868590  39.1774160
 101.4250170  69.8502430  53.4949330 101.7606410  70.4369120  54.1727250
 100.5050510  69.7195140  53.7247120  89.2784300  73.3623010  40.7896870
  89.6381940  73.9612350  40.1354140  89.1376640  73.9082900  41.5631900
  88.9753570  57.6397610  54.2772740  88.2612090  57.8394530  54.8825350
  89.3948610  56.8637180  54.6487540 103.0784520  67.2528090  41.6766570
 102.7906220  67.7140780  42.4644450 103.8736690  66.7925860  41.9450790
  89.2626160  71.6277870  55.2639270  89.3717280  70.6872610  55.1234660
  88.6106720  71.8932620  54.6153000  97.2538750  69.8993760  56.6637390
  96.9335620  69.1803000  57.2083080  96.5797110  70.5748830  56.7373450
  95.2952920  70.7454210  41.6070540  95.2863020  71.4783900  40.9915050
  94.3751280  70.4985790  41.6997500  90.8959560  65.9669100  42.3517300
  90.2887510  66.7068000  42.3612600  91.3708910  66.0568460  41.5255500
 100.4692350  60.1319920  52.0274190 100.8373170  59.3115130  52.3553760
  99.6090550  60.1921810  52.4429840 103.8354380  59.0876860  42.8361750
 103.2067540  59.1922530  42.1219980 103.3406300  59.3073640  43.6255630
  98.2812520  70.8082450  40.2695730  98.3824500  70.6046440  39.3397710
  97.3814260  70.5540730  40.4743510  97.4294340  62.7859510  52.2512160
  97.9279590  63.2605330  52.9164010  97.5717290  61.8623030  52.4582190
  96.9230630  73.3268770  44.9643400  97.1772130  73.2890160  44.0422770
  95.9743110  73.2002100  44.9571650 104.6361200  59.0027470  53.0940550
 104.1334800  59.7432870  53.4334360 105.4517860  59.3911470  52.7777340
 102.9283210  64.2460650  46.5401910 101.9873350  64.2610880  46.7149600
 103.2427280  63.4596610  46.9862210 104.9308790  71.4169500  48.2156170
 105.0556210  72.2400670  48.6879980 105.7974350  71.2060230  47.8680320
  92.4026320  73.5100710  47.8873300  93.1388800  72.9616170  48.1581870
  92.7867240  74.3756720  47.7479290  91.4084600  72.6946780  57.0758880
  92.2097330  73.0158830  57.4894280  90.8936420  72.3342360  57.7978790
  95.5128630  72.6831020  39.7098870  96.3057240  72.9719850  39.2580660
  94.9932980  72.2523190  39.0311350 100.2449230  68.8026650  57.0234290
  99.6387390  68.8258250  56.2830040  99.9403340  68.0709690  57.5601540
 101.6749600  72.5306940  55.6343700 102.6271350  72.4464960  55.5843940
 101.5277820  73.1948650  56.3077490 104.5658800  71.9101150  41.1335610
 104.2800310  71.4966290  40.3189790 104.3678350  72.8388860  41.0136130
  89.1282410  65.1820240  56.0194930  89.6321430  64.6027520  56.5911160
  88.3889830  65.4660470  56.5571300  96.0306030  67.9034430  39.5741220
  95.9256670  67.2886780  40.3002600  95.8630250  67.3800320  38.7904230
  96.1820350  66.5891230  55.5530450  95.4166020  67.1576230  55.4685120
  96.3636310  66.2967440  54.6598680  99.2708760  66.9654460  40.1783210
  98.7218860  67.4123760  40.8225950  99.8928020  66.4603710  40.7020880
 103.3243700  68.3196560  56.1105470 104.0653170  68.6572320  55.6072930
 102.5616380  68.4888620  55.5575240  91.1605490  63.3249830  56.9145000
  91.2010830  63.0263700  57.8230230  92.0150990  63.7257440  56.7552520
  93.1011300  61.9041930  54.8819490  92.5707760  61.4132880  54.2542830
  93.7699370  62.3326130  54.3477420 101.9989360  66.3711390  54.6460680
 102.4130380  66.5256470  55.4951100 101.0640360  66.4966610  54.8086460
 102.4711530  63.7107550  56.6499830 103.0532300  62.9559870  56.5620310
 102.6473300  64.2414990  55.8731310  93.5883600  58.8704300  54.9616780
  93.4940470  58.2525050  54.2367650  93.0080990  59.5970590  54.7346690
  96.3545040  57.4277540  51.9944170  95.9062340  57.4501800  51.1489720
  95.7210240  57.0296560  52.5914470  96.7604590  66.3231870  52.6156610
  97.1792700  67.1664600  52.4432850  95.8413220  66.4603910  52.3863390
  99.0968490  64.0548050  53.9994450  99.2164700  63.4589190  54.7389290
  99.9562490  64.0917740  53.5795750 101.4356390  64.6085240  52.5756960
 100.9091610  65.1327860  51.9722100 101.7787730  65.2412630  53.2066690
  94.6112010  72.6284880  53.7314340  94.0733100  73.3530940  53.4123040
  94.8645970  72.1515220  52.9411680  95.8637260  60.5969400  55.2570270
  96.4536950  60.2885250  55.9448090  95.0457500  60.1249150  55.4130170
 100.6830690  60.2135210  55.4903290  99.9946210  59.5516750  55.4253280
 101.4036710  59.7673480  55.9351750  97.4674220  73.8636090  53.9900990
  97.3932920  74.7671230  54.2973360  96.5653060  73.5447990  53.9623060
  98.0159550  73.0294600  41.6127350  98.9110340  73.3679570  41.6346110
  98.0477180  72.3074010  40.9851630  93.4663430  69.5219690  44.9536580
  93.1658970  69.3984660  45.8540490  93.3600920  68.6628280  44.5452310
  89.3591720  72.0581270  50.0316240  88.9222710  72.2382070  50.8640390
  89.9269400  72.8155890  49.8897960 104.9953900  71.5598270  54.3193550
 104.3955890  71.6190830  53.5757470 105.1247800  70.6203250  54.4490400
 106.2355350  69.3016090  39.6563260 105.4048310  69.3692740  40.1270490
 106.4127180  70.1920210  39.3530120 105.6911810  66.0463570  42.1597460
 106.4530720  66.6160220  42.2657150 105.7066180  65.4790770  42.9305770
 106.6971780  66.9013670  47.0039390 107.0680610  66.1180990  46.5975360
 107.3373710  67.5902770  46.8256690 103.6805540  68.2850250  52.4169710
 102.8665380  68.7147410  52.6795500 104.0879740  68.8968660  51.8038760
 105.7430980  66.3397940  39.3169980 106.0179820  67.2476820  39.1889200
 105.5541720  66.2760470  40.2531970 102.1406590  59.3642790  40.6123610
 102.5591470  59.1773770  39.7720270 101.8342650  58.5121840  40.9226540
 105.6396320  64.2766930  44.3099410 105.2639920  63.5094860  43.8780700
 104.9099440  64.6589630  44.7974340 105.0295940  63.4238450  53.9438930
 104.7982030  63.1951200  53.0436880 105.2900490  64.3438000  53.8983820
  89.7808080  61.8663160  54.8366880  88.8864130  61.8329920  55.1760590
  90.3205630  62.0649950  55.6018130 103.4684010  58.6494880  56.7218630
 104.3454190  58.6578280  57.1052630 103.4804850  57.9125720  56.1110980
 104.9147280  62.5024420  47.6106650 105.4384760  62.0087070  46.9796820
 105.5006700  62.6374780  48.3554220 105.0937000  62.5864290  51.1326200
 104.1439710  62.5527830  51.2471190 105.2750010  63.4964400  50.8975970
 104.4047250  61.7597770  43.5499060 104.9006370  61.5268640  44.3347940
 104.2063320  60.9209610  43.1336700 105.8334410  60.3958720  46.0836740
 105.7233690  60.2414760  47.0219010 106.5942000  59.8679660  45.8412150
 106.7224680  58.2266640  39.3242880 107.6473990  58.0947820  39.1161170
 106.7000470  58.3059460  40.2779330 106.7963170  58.9977300  41.9499590
 106.0014670  58.9322420  42.4792500 107.0006450  59.9327940  41.9384940
 103.7381590  73.0368850  45.9437980 104.3340660  72.7153420  45.2672400
 103.9959740  72.5640670  46.7351250  91.6444160  69.4686760  56.0928610
  91.6013790  69.0979670  56.9743070  91.7755170  70.4064330  56.2330430
  95.3450190  71.0246350  51.6938330  95.1041550  71.2920910  50.8068850
  96.2852830  71.1952080  51.7489190  97.5504610  57.4879040  55.4494840
  97.4893500  58.0800870  56.1990250  98.4904990  57.3805000  55.3045100
 100.1879170  57.1449100  55.0887130 100.8019580  57.4628390  54.4268210
 100.7328730  56.6597690  55.7082990 106.6054350  73.0440730  52.4948970
 106.1112630  73.4409600  51.7776100 105.9967640  72.4189940  52.8886250
  90.7100430  55.8243360  55.2026190  91.2583420  55.6431410  54.4392300
  90.7755740  55.0337470  55.7382500  91.4832190  72.4149010  53.2126390
  90.8892510  72.2833710  53.9516430  91.4756030  71.5787150  52.7468490
 104.2893800  73.6864150  49.7735710 103.8296770  74.4379960  49.3993730
 103.6606260  72.9670620  49.7150510  91.1144420  69.7807390  52.1634430
  90.3878480  69.1612680  52.0960380  91.1753570  70.1748000  51.2932510
  94.7189520  71.9952390  48.9483840  95.2354540  71.3839750  48.4232100
  95.3686900  72.4981170  49.4394850  97.4585020  72.8860880  49.7752820
  97.7462830  72.6315180  48.8985830  97.9708240  72.3338240  50.3658390
  89.3974420  73.0981780  45.3731190  89.2296460  72.4652460  46.0713080
  88.5308930  73.3041180  45.0225380 104.2075830  56.1101840  42.3788710
 104.4026460  57.0085290  42.6456140 103.4205700  55.8788920  42.8721660
  91.0037120  71.7915010  42.8181330  90.4784740  72.1723040  42.1143290
  90.9281700  72.4165780  43.5391040  97.5257380  73.8076980  57.1421020
  98.4524690  73.5721250  57.1856980  97.5107810  74.6348980  56.6607050
 105.7602440  73.3502550  44.1395270 105.9354630  72.6640290  43.4956190
 105.0624010  73.8749600  43.7471940  94.7120990  56.4721730  56.9062900
  94.4305260  56.9755330  56.1423720  95.0940690  55.6743480  56.5405030
  93.6030090  73.7397390  41.6930580  94.3348910  73.4556670  41.1454470
  93.8623760  73.5010670  42.5829960  92.7644880  69.8562120  41.6976910
  92.1353760  70.3247220  42.2462740  92.8792710  69.0111340  42.1323100
 101.3136450  55.8875310  57.4843370 101.2001900  56.2069920  58.3794890
 102.1306190  56.2887820  57.1880650 104.0934940  73.0346840  56.9662060
 104.8860260  72.5396070  56.7588020 104.3868090  73.7136980  57.5737670
 100.2194600  63.9067780  27.8478110 100.1388650  62.9922390  27.5769820
  99.8059020  64.4034850  27.1417820  98.3512640  65.6846800  29.7287380
  97.5754740  65.2047240  30.0185950  99.0025570  65.0052450  29.5543540
 102.3720070  70.0906990  28.5086510 101.9101600  69.3194230  28.8373680
 103.1845620  70.1173060  29.0138960  98.5983380  72.3765000  28.1290500
  97.9794820  72.8322500  27.5584940  99.4535160  72.5316460  27.7280200
  97.7921630  68.3603990  29.7357540  97.7229910  67.4193930  29.5746670
  98.5541490  68.4505400  30.3080110  98.8226800  61.1674370  29.9626470
  99.1991620  60.2946250  29.8500140  98.7246310  61.5033070  29.0716910
 102.6050920  58.6624810  26.8954810 103.4260540  58.1721380  26.9380290
 102.6385000  59.2522470  27.6486650 106.8950470  60.6791560  33.4598440
 106.1902640  61.0673270  32.9413550 107.1608390  61.3741850  34.0619370
  99.4646730  67.2604240  25.5222410  98.8464000  67.7253690  24.9585130
  99.9769980  67.9531720  25.9391920 102.8412400  60.6025190  29.6682350
 102.1367970  60.8910080  30.2485460 103.2024560  61.4125300  29.3081910
  88.8329930  67.9460770  22.8962040  88.4557910  68.4347870  22.1646940
  89.0903000  68.6186050  23.5268570 104.4575180  70.2200320  31.9309830
 103.7738700  70.8899430  31.9226500 104.9969470  70.4180970  31.1654690
 105.9099320  60.0479980  30.0591560 104.9624230  60.0818960  30.1906990
 106.2349310  60.8618930  30.4440920 101.9933920  72.0644450  30.6455010
 102.0061080  71.6606740  29.7777270 101.4409140  72.8391740  30.5416440
 103.2879340  68.7860670  25.7345180 103.1775670  67.8435000  25.8594600
 103.2847590  69.1476310  26.6207940 101.3919360  66.9674290  31.9737620
 101.8088150  66.7534400  31.1391080 102.1159180  67.2247080  32.5446240
  98.8299620  64.4125990  25.0907670  97.9028900  64.3463370  25.3196140
  98.9824440  65.3506120  24.9762910  98.8168700  60.6842990  22.0874830
  97.8772370  60.8456950  22.1727290  99.1351960  61.4028670  21.5410820
 105.3381460  65.3661510  32.0653860 104.5100090  65.4354600  31.5903990
 105.9331940  65.9515820  31.5969690 102.8596910  65.9746290  25.5942920
 102.2409330  65.6365840  24.9469220 102.8421360  65.3306050  26.3022110
 102.3023470  62.1530830  33.0108730 101.8894650  62.9784540  33.2648720
 101.5699420  61.5675870  32.8185090  94.9037960  68.6258290  30.0366610
  94.6066250  68.0203760  29.3574390  95.8537780  68.6635600  29.9255970
 102.9923570  72.1990160  33.6989710 102.5154130  73.0062350  33.5062320
 102.3085360  71.5468490  33.8515920 101.0361610  65.2133100  22.6015670
 101.4754890  64.3755530  22.4553490 101.7490030  65.8462500  22.6879810
  99.1456990  70.1529170  26.5696910  99.5852900  70.8953500  26.1552300
  99.0843880  70.3955740  27.4935870 104.6178750  56.4675910  20.9156710
 104.3051410  56.5602740  21.8155780 105.3791220  57.0456940  20.8654140
 106.5722780  71.9602100  38.7681100 107.0482500  72.4384990  39.4470180
 107.1929940  71.8919590  38.0426600  90.0193890  68.7051040  27.5908870
  89.6121970  68.8465630  26.7362470  90.9106900  68.4211200  27.3880080
 105.9756030  69.1514950  35.9281110 106.1019090  68.9126830  35.0098290
 106.0177410  68.3199490  36.4003190  99.8372770  72.8542950  34.4975920
 100.3517440  72.7650960  35.2998350  98.9941850  73.2002650  34.7903830
 101.8127170  73.1398290  23.9259920 101.6528310  72.8501230  24.8241750
 101.6473880  72.3638420  23.3905150  94.2915550  72.9196820  25.7031540
  94.1158030  72.0032360  25.4899340  93.4371290  73.2784110  25.9429340
 101.5153300  70.6485850  22.4857920 100.8218460  70.6463140  21.8260200
 102.2576160  70.2245170  22.0552090 101.0803230  72.2748560  26.5606410
 101.5360180  71.4937940  26.8745030 101.4195750  72.9855380  27.1047590
 105.8280040  61.2047410  36.8930850 105.2124310  61.7127080  36.3646310
 105.5076460  60.3045740  36.8356790 102.8898870  61.2648250  35.4889700
 102.0392460  60.9654000  35.8098770 102.7300660  61.5090260  34.5773520
  96.7183370  56.7981480  23.6363550  96.0937550  56.7941350  24.3616860
  96.6313490  55.9312440  23.2399520 100.6236530  62.3067720  25.0829620
 100.0245420  63.0303520  24.8993240 101.1716140  62.2444500  24.3006070
  99.2301400  60.9431260  27.1132900  99.6230970  61.2603460  26.3001590
  99.5918250  60.0643140  27.2277420  88.4535800  61.4752180  20.5465820
  88.3710470  62.4182940  20.6880810  88.1018860  61.3327090  19.6678170
  99.8156540  63.5337010  31.2083680  99.0837660  64.0423820  31.5573780
  99.4180880  62.7166990  30.9072460  96.3154080  61.2103290  22.6042930
  96.4366900  61.1689770  23.5528750  95.9302590  62.0727440  22.4489660
 100.2782450  58.9870690  30.6206620 100.2955190  59.4379340  31.4648470
 100.0298030  58.0876330  30.8340060  95.3275580  63.5204430  22.0026230
  94.7592480  63.0722680  21.3762140  96.0364580  63.8797210  21.4691380
 103.7053200  56.4002870  36.4593000 104.0298970  55.6692530  36.9850980
 103.7409710  56.0816510  35.5573990  96.5541900  64.2692990  31.3601580
  96.9212030  63.7951560  32.1062920  96.3646960  65.1434560  31.7009920
  92.8723060  67.5162620  24.2752640  92.0985320  66.9760240  24.1151360
  93.6017690  66.9969230  23.9370400 103.6311040  66.5127980  30.0679030
 104.3510160  67.0083270  29.6775140 103.4292860  65.8345870  29.4232900
  99.0920980  57.9065940  24.2108420  98.2785590  57.4079110  24.1353730
  98.8982930  58.7464190  23.7944770  99.0129840  66.5837040  35.9548030
  98.9467150  65.6632710  35.7005620  98.3834980  66.6812480  36.6692670
 101.8069370  62.2785590  22.5070580 102.6948990  62.5902820  22.3321920
 101.7774460  61.4057840  22.1151160  92.9160460  67.1843000  27.9131450
  93.4339130  66.3811260  27.8588340  92.4644480  67.1222140  28.7548280
  97.8029960  68.4509280  23.1858750  98.1445660  69.1951510  22.6902070
  96.9742670  68.7640400  23.5483580  98.9446570  69.4057610  35.7051830
  98.9591110  68.4738570  35.4870740  98.2371670  69.4917370  36.3441600
 104.0783640  63.5897430  21.9750440 103.9947360  64.0211650  21.1246880
 104.7977830  64.0495780  22.4077260 105.1557780  66.0464950  35.0520410
 104.4305970  66.6393730  34.8549800 105.6833240  66.0388490  34.2533780
 105.1070890  70.4439690  24.7032570 104.4647050  69.7895310  24.9776290
 104.7201550  70.8494780  23.9273240 100.6857370  67.7725120  28.5504260
 101.0381190  67.1753250  27.8905630  99.8019700  67.4469350  28.7212510
  96.7720650  68.5322810  25.9574670  97.4591780  69.0792020  26.3382260
  95.9853070  69.0763540  25.9924280  88.9113050  64.1495630  21.4491750
  89.7807900  64.4320430  21.7327670  88.4203370  64.9631500  21.3340560
  96.0747860  65.5368840  25.5700030  96.5310640  66.3474090  25.7960220
  95.7236070  65.2191980  26.4018520  98.3780470  71.0475180  32.7992330
  99.0222690  71.2534560  33.4765750  98.7409910  70.2863580  32.3463180
  99.6512550  69.0507530  31.5169780 100.2934780  68.3500690  31.6301950
 100.1761900  69.8305970  31.3366670 103.4968270  69.3356150  21.2408920
 103.2705850  68.6186590  21.8333560 103.1064470  69.0868590  20.4030670
 101.4250170  69.8502430  34.7205840 101.7606410  70.4369120  35.3983760
 100.5050510  69.7195140  34.9503630  89.2784300  73.3623010  22.0153380
  89.6381940  73.9612350  21.3610650  89.1376640  73.9082900  22.7888410
 103.0784520  67.2528090  22.9023080 102.7906220  67.7140780  23.6900960
 103.8736690  66.7925860  23.1707300  97.2538750  69.8993760  37.8893900
  96.9335620  69.1803000  38.4339590  96.5797110  70.5748830  37.9629960
  95.2952920  70.7454210  22.8327050  95.2863020  71.4783900  22.2171560
  94.3751280  70.4985790  22.9254010  90.8959560  65.9669100  23.5773810
  90.2887510  66.7068000  23.5869110  91.3708910  66.0568460  22.7512010
 100.4692350  60.1319920  33.2530700 100.8373170  59.3115130  33.5810270
  99.6090550  60.1921810  33.6686350 103.8354380  59.0876860  24.0618260
 103.2067540  59.1922530  23.3476490 103.3406300  59.3073640  24.8512140
  98.2812520  70.8082450  21.4952240  98.3824500  70.6046440  20.5654220
  97.3814260  70.5540730  21.7000020  99.8353840  58.0913470  26.9171930
  99.7121620  58.1099600  25.9681440 100.7838400  58.1392410  27.0370330
  96.9230630  73.3268770  26.1899910  97.1772130  73.2890160  25.2679280
  95.9743110  73.2002100  26.1828160  94.0073430  59.6747890  22.8526850
  94.8563960  60.1118040  22.7867040  93.6404700  59.9868150  23.6798910
 104.6361200  59.0027470  34.3197060 104.1334800  59.7432870  34.6590870
 105.4517860  59.3911470  34.0033850 102.9283210  64.2460650  27.7658420
 101.9873350  64.2610880  27.9406110 103.2427280  63.4596610  28.2118720
  92.9064850  65.9280250  21.3262380  93.6728120  65.8161610  21.8887810
  92.9839540  65.2318220  20.6739150  91.6011610  63.3605320  22.0095270
  91.6815200  62.4132830  22.1212670  92.4931360  63.6912200  22.1155930
 104.9308790  71.4169500  29.4412680 105.0556210  72.2400670  29.9136490
 105.7974350  71.2060230  29.0936830  92.4026320  73.5100710  29.1129810
  93.1388800  72.9616170  29.3838380  92.7867240  74.3756720  28.9735800
  89.2871800  69.5774280  24.9871320  88.3611580  69.8195420  24.9776730
  89.7528230  70.4048540  24.8656070  91.4084600  72.6946780  38.3015390
  92.2097330  73.0158830  38.7150790  90.8936420  72.3342360  39.0235300
  95.5128630  72.6831020  20.9355380  96.3057240  72.9719850  20.4837170
  94.9932980  72.2523190  20.2567860 100.2449230  68.8026650  38.2490800
  99.6387390  68.8258250  37.5086550  99.9403340  68.0709690  38.7858050
 101.6749600  72.5306940  36.8600210 102.6271350  72.4464960  36.8100450
 101.5277820  73.1948650  37.5334000 104.5658800  71.9101150  22.3592120
 104.2800310  71.4966290  21.5446300 104.3678350  72.8388860  22.2392640
  96.0306030  67.9034430  20.7997730  95.9256670  67.2886780  21.5259110
  95.8630250  67.3800320  20.0160740  96.1820350  66.5891230  36.7786960
  95.4166020  67.1576230  36.6941630  96.3636310  66.2967440  35.8855190
  99.2708760  66.9654460  21.4039720  98.7218860  67.4123760  22.0482460
  99.8928020  66.4603710  21.9277390 103.3243700  68.3196560  37.3361980
 104.0653170  68.6572320  36.8329440 102.5616380  68.4888620  36.7831750
  94.9383880  65.9245380  23.3005020  95.3600300  65.7585250  24.1436410
  95.0634720  65.1145610  22.8060160  97.4511520  64.9482990  20.5482120
  97.9717180  64.2332010  20.1823270  98.0979920  65.5868860  20.8482630
 101.9989360  66.3711390  35.8717190 102.4130380  66.5256470  36.7207610
 101.0640360  66.4966610  36.0342970 102.4711530  63.7107550  37.8756340
 103.0532300  62.9559870  37.7876820 102.6473300  64.2414990  37.0987820
  96.7604590  66.3231870  33.8413120  97.1792700  67.1664600  33.6689360
  95.8413220  66.4603910  33.6119900  99.0968490  64.0548050  35.2250960
  99.2164700  63.4589190  35.9645800  99.9562490  64.0917740  34.8052260
 101.4356390  64.6085240  33.8013470 100.9091610  65.1327860  33.1978610
 101.7787730  65.2412630  34.4323200  93.8342780  61.9978610  20.2463180
  93.6331840  61.1345970  20.6076520  93.6634830  61.9111970  19.3084780
  94.6112010  72.6284880  34.9570850  94.0733100  73.3530940  34.6379550
  94.8645970  72.1515220  34.1668190 101.3131090  56.8086840  22.7750060
 101.5933380  55.9654740  23.1309480 100.5396820  57.0409950  23.2888810
  92.6325580  59.0979230  20.2341060  92.9351480  59.1046660  19.3260210
  93.3720170  58.7477090  20.7308720  97.4674220  73.8636090  35.2157500
  97.3932920  74.7671230  35.5229870  96.5653060  73.5447990  35.1879570
  95.8510510  58.0413850  21.2197260  95.5032510  57.3637840  20.6399710
  96.0523280  57.5803360  22.0340650  98.0159550  73.0294600  22.8383860
  98.9110340  73.3679570  22.8602620  98.0477180  72.3074010  22.2108140
  91.6555710  68.4021650  21.0670860  92.0930580  68.9451320  21.7228440
  92.1403440  67.5768600  21.0767200  93.4663430  69.5219690  26.1793090
  93.1658970  69.3984660  27.0797000  93.3600920  68.6628280  25.7708820
 104.9953900  71.5598270  35.5450060 104.3955890  71.6190830  34.8013980
 105.1247800  70.6203250  35.6746910 106.2355350  69.3016090  20.8819770
 105.4048310  69.3692740  21.3527000 106.4127180  70.1920210  20.5786630
 105.6911810  66.0463570  23.3853970 106.4530720  66.6160220  23.4913660
 105.7066180  65.4790770  24.1562280  89.1916150  64.5701500  27.6161630
  88.5364990  64.3013140  26.9721330  90.0294100  64.4605980  27.1663610
 106.6971780  66.9013670  28.2295900 107.0680610  66.1180990  27.8231870
 107.3373710  67.5902770  28.0513200 103.6805540  68.2850250  33.6426220
 102.8665380  68.7147410  33.9052010 104.0879740  68.8968660  33.0295270
 105.7430980  66.3397940  20.5426490 106.0179820  67.2476820  20.4145710
 105.5541720  66.2760470  21.4788480 102.1406590  59.3642790  21.8380120
 102.5591470  59.1773770  20.9976780 101.8342650  58.5121840  22.1483050
 105.6396320  64.2766930  25.5355920 105.2639920  63.5094860  25.1037210
 104.9099440  64.6589630  26.0230850 105.0295940  63.4238450  35.1695440
 104.7982030  63.1951200  34.2693390 105.2900490  64.3438000  35.1240330
 103.4684010  58.6494880  37.9475140 104.3454190  58.6578280  38.3309140
 103.4804850  57.9125720  37.3367490  88.4054230  61.7800430  23.5586960
  87.5018310  62.0430630  23.3838620  88.8894850  62.0511600  22.7786920
 104.9147280  62.5024420  28.8363160 105.4384760  62.0087070  28.2053330
 105.5006700  62.6374780  29.5810730 105.0937000  62.5864290  32.3582710
 104.1439710  62.5527830  32.4727700 105.2750010  63.4964400  32.1232480
  90.9481440  60.8365970  21.4681340  91.6573140  60.4149190  20.9828620
  90.2321380  60.9041200  20.8364690  90.5955600  56.8905300  20.5083990
  91.3183730  57.4314240  20.8265210  90.8680120  56.6168720  19.6325530
 104.4047250  61.7597770  24.7755570 104.9006370  61.5268640  25.5604450
 104.2063320  60.9209610  24.3593210 105.8334410  60.3958720  27.3093250
 105.7233690  60.2414760  28.2475520 106.5942000  59.8679660  27.0668660
 104.1800130  56.3352850  33.7676250 104.8172350  56.9486990  34.1335440
 104.3275020  56.3713510  32.8225480 106.7224680  58.2266640  20.5499390
 107.6473990  58.0947820  20.3417680 106.7000470  58.3059460  21.5035840
 106.7963170  58.9977300  23.1756100 106.0014670  58.9322420  23.7049010
 107.0006450  59.9327940  23.1641450 103.7381590  73.0368850  27.1694490
 104.3340660  72.7153420  26.4928910 103.9959740  72.5640670  27.9607760
  95.3450190  71.0246350  32.9194840  95.1041550  71.2920910  32.0325360
  96.2852830  71.1952080  32.9745700 106.6054350  73.0440730  33.7205480
 106.1112630  73.4409600  33.0032610 105.9967640  72.4189940  34.1142760
 100.9287210  55.7081240  32.6412930 100.0547050  56.0416350  32.4385860
 100.8197960  55.2354420  33.4664800 101.8359190  57.9152110  34.0254650
 101.5072550  57.1003870  33.6456380 102.7841490  57.8721920  33.9020340
 104.2893800  73.6864150  30.9992220 103.8296770  74.4379960  30.6250240
 103.6606260  72.9670620  30.9407020  94.7189520  71.9952390  30.1740350
  95.2354540  71.3839750  29.6488610  95.3686900  72.4981170  30.6651360
  97.4585020  72.8860880  31.0009330  97.7462830  72.6315180  30.1242340
  97.9708240  72.3338240  31.5914900  98.6762030  56.6251080  31.5805840
  97.8933820  57.0996580  31.8602600  98.3824960  55.7205910  31.4719020
 103.2283100  57.3274180  29.6254930 103.6691190  57.2719280  28.7776530
 102.9590690  58.2432190  29.6965110 105.0921670  56.9589420  27.6363750
 105.0310070  56.0150640  27.4894770 105.8713700  57.0669510  28.1817210
  89.3974420  73.0981780  26.5987700  89.2296460  72.4652460  27.2969590
  88.5308930  73.3041180  26.2481890 101.0641230  55.7080280  28.3304940
 101.6670600  56.2800490  28.8053460 100.3234220  56.2719720  28.1078840
 104.2075830  56.1101840  23.6045220 104.4026460  57.0085290  23.8712650
 103.4205700  55.8788920  24.0978170  91.0037120  71.7915010  24.0437840
  90.4784740  72.1723040  23.3399800  90.9281700  72.4165780  24.7647550
  97.5257380  73.8076980  38.3677530  98.4524690  73.5721250  38.4113490
  97.5107810  74.6348980  37.8863560 105.7602440  73.3502550  25.3651780
 105.9354630  72.6640290  24.7212700 105.0624010  73.8749600  24.9728450
  93.6030090  73.7397390  22.9187090  94.3348910  73.4556670  22.3710980
  93.8623760  73.5010670  23.8086470  92.7644880  69.8562120  22.9233420
  92.1353760  70.3247220  23.4719250  92.8792710  69.0111340  23.3579610
 101.3136450  55.8875310  38.7099880 101.2001900  56.2069920  39.6051400
 102.1306190  56.2887820  38.4137160 104.0934940  73.0346840  38.1918570
 104.8860260  72.5396070  37.9844530 104.3868090  73.7136980  38.7994180
 100.2194600  63.9067780   9.0734620 100.1388650  62.9922390   8.8026330
  99.8059020  64.4034850   8.3674330  98.3512640  65.6846800  10.9543890
  97.5754740  65.2047240  11.2442460  99.0025570  65.0052450  10.7800050
  92.3678470  65.9966610  11.8319650  91.5363350  65.7415320  12.2316160
  92.9759450  66.0677380  12.5677570 102.3720070  70.0906990   9.7343020
 101.9101600  69.3194230  10.0630190 103.1845620  70.1173060  10.2395470
  92.3479730  70.0306700  12.0277670  92.6507770  69.1404440  11.8487890
  93.0923320  70.5876920  11.7999920  90.7770420  60.9568500   5.6162040
  89.8887120  61.2984470   5.5141920  91.0611610  60.7568820   4.7242870
  88.7403430  63.5574150  11.5001740  89.3119540  62.7896350  11.5005380
  88.7404970  63.8562910  10.5908350  98.5983380  72.3765000   9.3547010
  97.9794820  72.8322500   8.7841450  99.4535160  72.5316460   8.9536710
  97.7921630  68.3603990  10.9614050  97.7229910  67.4193930  10.8003180
  98.5541490  68.4505400  11.5336620  89.9828300  58.9658510  13.2870670
  89.8031140  58.0684260  13.5673430  89.5808380  59.5130380  13.9617620
  98.8226800  61.1674370  11.1882980  99.1991620  60.2946250  11.0756650
  98.7246310  61.5033070  10.2973420  92.9531810  59.5400000   6.6500420
  93.0598560  60.4403730   6.9569180  92.0424170  59.4917970   6.3595070
 102.6050920  58.6624810   8.1211320 103.4260540  58.1721380   8.1636800
 102.6385000  59.2522470   8.8743160  90.6014970  61.4619010  11.8953010
  91.2825080  61.7257380  12.5140410  90.2863020  60.6219880  12.2291020
  94.7939540  62.5086370  10.9825600  95.3017760  63.0067340  11.6230620
  95.3252780  61.7321570  10.8064960 106.8950470  60.6791560  14.6854950
 106.1902640  61.0673270  14.1670060 107.1608390  61.3741850  15.2875880
  93.0775640  57.1484930  15.2489020  93.0794080  57.6657320  14.4434920
  92.2479950  56.6715110  15.2258950  99.4646730  67.2604240   6.7478920
  98.8464000  67.7253690   6.1841640  99.9769980  67.9531720   7.1648430
  94.3278490  66.7880110  13.4262520  93.9947870  67.4149030  14.0683590
  94.5045170  67.3141990  12.6464190 102.8412400  60.6025190  10.8938860
 102.1367970  60.8910080  11.4741970 103.2024560  61.4125300  10.5338420
  92.7590970  58.8594890  13.2559470  93.1007780  59.7036940  12.9613340
  91.8206780  59.0078630  13.3724810  93.5397590  68.7560910  15.2411700
  94.1571590  69.4311990  14.9596150  92.6790710  69.1648890  15.1499200
  88.8329930  67.9460770   4.1218550  88.4557910  68.4347870   3.3903450
  89.0903000  68.6186050   4.7525080 104.4575180  70.2200320  13.1566340
 103.7738700  70.8899430  13.1483010 104.9969470  70.4180970  12.3911200
 105.9099320  60.0479980  11.2848070 104.9624230  60.0818960  11.4163500
 106.2349310  60.8618930  11.6697430  96.4418860  56.3477160   9.5804060
  96.7493840  55.7924050   8.8639560  95.5119560  56.4821620   9.3977050
 101.9933920  72.0644450  11.8711520 102.0061080  71.6606740  11.0033780
 101.4409140  72.8391740  11.7672950 103.2879340  68.7860670   6.9601690
 103.1775670  67.8435000   7.0851110 103.2847590  69.1476310   7.8464450
 101.3919360  66.9674290  13.1994130 101.8088150  66.7534400  12.3647590
 102.1159180  67.2247080  13.7702750  98.8299620  64.4125990   6.3164180
  97.9028900  64.3463370   6.5452650  98.9824440  65.3506120   6.2019420
  98.8168700  60.6842990   3.3131340  97.8772370  60.8456950   3.3983800
  99.1351960  61.4028670   2.7667330 105.3381460  65.3661510  13.2910370
 104.5100090  65.4354600  12.8160500 105.9331940  65.9515820  12.8226200
 102.8596910  65.9746290   6.8199430 102.2409330  65.6365840   6.1725730
 102.8421360  65.3306050   7.5278620 102.3023470  62.1530830  14.2365240
 101.8894650  62.9784540  14.4905230 101.5699420  61.5675870  14.0441600
  94.4356260  64.9390730   9.0983910  94.0313260  64.2267980   8.6029810
  94.5219380  64.5943970   9.9871950  94.9037960  68.6258290  11.2623120
  94.6066250  68.0203760  10.5830900  95.8537780  68.6635600  11.1512480
  93.1484880  61.7133940  12.8782950  93.6999470  61.8229280  12.1036200
  93.6628390  62.0871540  13.5938180 102.9923570  72.1990160  14.9246220
 102.5154130  73.0062350  14.7318830 102.3085360  71.5468490  15.0772430
  93.9956390  68.3639980  17.9130920  93.0984920  68.5879950  18.1604320
  94.0209260  68.4874920  16.9642320 101.0361610  65.2133100   3.8272180
 101.4754890  64.3755530   3.6810000 101.7490030  65.8462500   3.9136320
  92.8227610  65.2353300  16.4888290  92.6835380  66.1076100  16.8575690
  91.9408970  64.8926110  16.3436230  99.1456990  70.1529170   7.7953420
  99.5852900  70.8953500   7.3808810  99.0843880  70.3955740   8.7192380
  94.6207960  71.1775000  18.6973440  94.5923390  71.5817950  17.8301870
  94.4572930  70.2485360  18.5345040 104.6178750  56.4675910   2.1413220
 104.3051410  56.5602740   3.0412290 105.3791220  57.0456940   2.0910650
  91.1360890  63.8335710   6.5990560  91.0158490  64.5597800   5.9871830
  90.8261780  63.0638620   6.1218470 106.5722780  71.9602100  19.9937610
 107.0482500  72.4384990  20.6726690 107.1929940  71.8919590  19.2683110
  88.7746260  67.0050850  12.4059200  88.8526680  67.1399620  11.4614920
  89.3887940  66.2966740  12.5987320  90.0193890  68.7051040   8.8165380
  89.6121970  68.8465630   7.9618980  90.9106900  68.4211200   8.6136590
 105.9756030  69.1514950  17.1537620 106.1019090  68.9126830  16.2354800
 106.0177410  68.3199490  17.6259700  99.8372770  72.8542950  15.7232430
 100.3517440  72.7650960  16.5254860  98.9941850  73.2002650  16.0160340
 101.8127170  73.1398290   5.1516430 101.6528310  72.8501230   6.0498260
 101.6473880  72.3638420   4.6161660  94.2915550  72.9196820   6.9288050
  94.1158030  72.0032360   6.7155850  93.4371290  73.2784110   7.1685850
 101.5153300  70.6485850   3.7114430 100.8218460  70.6463140   3.0516710
 102.2576160  70.2245170   3.2808600 101.0803230  72.2748560   7.7862920
 101.5360180  71.4937940   8.1001540 101.4195750  72.9855380   8.3304100
 105.8280040  61.2047410  18.1187360 105.2124310  61.7127080  17.5902820
 105.5076460  60.3045740  18.0613300  88.8305780  68.0465020  14.9453660
  88.9936820  67.5770380  14.1273030  89.2958230  67.5388580  15.6102500
  93.6024550  57.1770780   9.9814230  93.1592700  57.9580320   9.6498750
  94.1609540  57.5000670  10.6885170  97.8894360  60.0439300  15.5849550
  97.4273730  60.2522320  16.3969490  97.4872470  59.2298650  15.2820220
 102.8898870  61.2648250  16.7146210 102.0392460  60.9654000  17.0355280
 102.7300660  61.5090260  15.8030030  99.9848580  62.7650000  18.8145000
 100.3101990  61.9313750  18.4747230 100.7728910  63.2878520  18.9623330
  96.7183370  56.7981480   4.8620060  96.0937550  56.7941350   5.5873370
  96.6313490  55.9312440   4.4656030  95.6400450  57.7218110  11.8403830
  95.9372780  58.6280940  11.7595850  96.1886010  57.2336890  11.2263400
  93.3938770  62.3004350   7.7095480  93.1679690  62.0841520   8.6142100
  92.6131300  62.7332810   7.3641450 100.6236530  62.3067720   6.3086130
 100.0245420  63.0303520   6.1249750 101.1716140  62.2444500   5.5262580
  95.8337980  63.1989930  18.3755750  95.7381580  62.2584660  18.2256150
  96.6769960  63.4205000  17.9803820  99.2301400  60.9431260   8.3389410
  99.6230970  61.2603460   7.5258100  99.5918250  60.0643140   8.4533930
  90.9648520  59.6103600  16.5289530  90.5711910  60.4578810  16.7362310
  90.2766920  58.9729970  16.7198170  97.5393570  59.6938570  19.5986270
  96.8491890  59.5010770  20.2332360  98.2825870  59.9773210  20.1310570
  88.2665570  57.5332060  10.5619610  87.9778620  58.1034920  11.2744590
  89.0111330  57.0536510  10.9250840  99.8156540  63.5337010  12.4340190
  99.0837660  64.0423820  12.7830290  99.4180880  62.7166990  12.1328970
  96.2533930  60.2091210  10.8392680  96.2569990  59.7681160   9.9897220
  97.1485050  60.5308540  10.9464500  92.1036310  60.0917700   9.7986890
  91.7636360  60.5692930  10.5553940  91.3413630  59.6382820   9.4387990
  96.3154080  61.2103290   3.8299440  96.4366900  61.1689770   4.7785260
  95.9302590  62.0727440   3.6746170 100.2782450  58.9870690  11.8463130
 100.2955190  59.4379340  12.6904980 100.0298030  58.0876330  12.0596570
  95.3275580  63.5204430   3.2282740  94.7592480  63.0722680   2.6018650
  96.0364580  63.8797210   2.6947890 103.7053200  56.4002870  17.6849510
 104.0298970  55.6692530  18.2107490 103.7409710  56.0816510  16.7830500
  90.4044760  67.4216450  17.1049470  90.0199550  66.7810120  17.7032430
  90.7156950  68.1252570  17.6744200  96.5541900  64.2692990  12.5858090
  96.9212030  63.7951560  13.3319430  96.3646960  65.1434560  12.9266430
  89.4182390  59.0136680   8.7151560  89.1329310  58.6492350   9.5530180
  89.3561250  58.2817140   8.1014700  94.3441270  63.3101630  14.9042300
  94.0398340  64.1893610  15.1292660  95.2987730  63.3701420  14.9399740
  92.8723060  67.5162620   5.5009150  92.0985320  66.9760240   5.3407870
  93.6017690  66.9969230   5.1626910 103.6311040  66.5127980  11.2935540
 104.3510160  67.0083270  10.9031650 103.4292860  65.8345870  10.6489410
  99.0920980  57.9065940   5.4364930  98.2785590  57.4079110   5.3610240
  98.8982930  58.7464190   5.0201280  99.0129840  66.5837040  17.1804540
  98.9467150  65.6632710  16.9262130  98.3834980  66.6812480  17.8949180
 101.8069370  62.2785590   3.7327090 102.6948990  62.5902820   3.5578430
 101.7774460  61.4057840   3.3407670  92.9160460  67.1843000   9.1387960
  93.4339130  66.3811260   9.0844850  92.4644480  67.1222140   9.9804790
  97.8029960  68.4509280   4.4115260  98.1445660  69.1951510   3.9158580
  96.9742670  68.7640400   4.7740090  90.4005000  64.1504370  16.0513660
  90.0419940  64.8158220  16.6387000  90.1059560  63.3187920  16.4226280
  93.6018120  64.6088610  18.9353210  93.3018260  64.7545790  18.0381030
  94.3729360  64.0493900  18.8426600  98.9446570  69.4057610  16.9308340
  98.9591110  68.4738570  16.7127250  98.2371670  69.4917370  17.5698110
 104.0783640  63.5897430   3.2006950 103.9947360  64.0211650   2.3503390
 104.7977830  64.0495780   3.6333770 105.1557780  66.0464950  16.2776920
 104.4305970  66.6393730  16.0806310 105.6833240  66.0388490  15.4790290
 105.1070890  70.4439690   5.9289080 104.4647050  69.7895310   6.2032800
 104.7201550  70.8494780   5.1529750 100.6857370  67.7725120   9.7760770
 101.0381190  67.1753250   9.1162140  99.8019700  67.4469350   9.9469020
  96.7720650  68.5322810   7.1831180  97.4591780  69.0792020   7.5638770
  95.9853070  69.0763540   7.2180790  88.9113050  64.1495630   2.6748260
  89.7807900  64.4320430   2.9584180  88.4203370  64.9631500   2.5597070
  96.0747860  65.5368840   6.7956540  96.5310640  66.3474090   7.0216730
  95.7236070  65.2191980   7.6275030  98.3780470  71.0475180  14.0248840
  99.0222690  71.2534560  14.7022260  98.7409910  70.2863580  13.5719690
  91.9759640  55.8806490   7.2679060  91.8474270  55.8724390   8.2163980
  91.1521660  56.2189580   6.9170070  99.6512550  69.0507530  12.7426290
 100.2934780  68.3500690  12.8558460 100.1761900  69.8305970  12.5623180
 103.4968270  69.3356150   2.4665430 103.2705850  68.6186590   3.0590070
 103.1064470  69.0868590   1.6287180 101.4250170  69.8502430  15.9462350
 101.7606410  70.4369120  16.6240270 100.5050510  69.7195140  16.1760140
  89.2784300  73.3623010   3.2409890  89.6381940  73.9612350   2.5867160
  89.1376640  73.9082900   4.0144920  88.9753570  57.6397610  16.7285760
  88.2612090  57.8394530  17.3338370  89.3948610  56.8637180  17.1000560
 103.0784520  67.2528090   4.1279590 102.7906220  67.7140780   4.9157470
 103.8736690  66.7925860   4.3963810  89.2626160  71.6277870  17.7152290
  89.3717280  70.6872610  17.5747680  88.6106720  71.8932620  17.0666020
  97.2538750  69.8993760  19.1150410  96.9335620  69.1803000  19.6596100
  96.5797110  70.5748830  19.1886470  95.2952920  70.7454210   4.0583560
  95.2863020  71.4783900   3.4428070  94.3751280  70.4985790   4.1510520
  90.8959560  65.9669100   4.8030320  90.2887510  66.7068000   4.8125620
  91.3708910  66.0568460   3.9768520 100.4692350  60.1319920  14.4787210
 100.8373170  59.3115130  14.8066780  99.6090550  60.1921810  14.8942860
 103.8354380  59.0876860   5.2874770 103.2067540  59.1922530   4.5733000
 103.3406300  59.3073640   6.0768650  98.2812520  70.8082450   2.7208750
  98.3824500  70.6046440   1.7910730  97.3814260  70.5540730   2.9256530
  95.8038410  61.3662810   6.7032650  95.0954560  61.8349150   7.1446260
  96.0882890  60.7084820   7.3377840  97.4294340  62.7859510  14.7025180
  97.9279590  63.2605330  15.3677030  97.5717290  61.8623030  14.9095210
  99.8353840  58.0913470   8.1428440  99.7121620  58.1099600   7.1937950
 100.7838400  58.1392410   8.2626840  96.9230630  73.3268770   7.4156420
  97.1772130  73.2890160   6.4935790  95.9743110  73.2002100   7.4084670
  94.0073430  59.6747890   4.0783360  94.8563960  60.1118040   4.0123550
  93.6404700  59.9868150   4.9055420 104.6361200  59.0027470  15.5453570
 104.1334800  59.7432870  15.8847380 105.4517860  59.3911470  15.2290360
 102.9283210  64.2460650   8.9914930 101.9873350  64.2610880   9.1662620
 103.2427280  63.4596610   9.4375230  92.9064850  65.9280250   2.5518890
  93.6728120  65.8161610   3.1144320  92.9839540  65.2318220   1.8995660
  91.6011610  63.3605320   3.2351780  91.6815200  62.4132830   3.3469180
  92.4931360  63.6912200   3.3412440 104.9308790  71.4169500  10.6669190
 105.0556210  72.2400670  11.1393000 105.7974350  71.2060230  10.3193340
  92.4026320  73.5100710  10.3386320  93.1388800  72.9616170  10.6094890
  92.7867240  74.3756720  10.1992310  89.2871800  69.5774280   6.2127830
  88.3611580  69.8195420   6.2033240  89.7528230  70.4048540   6.0912580
  91.4084600  72.6946780  19.5271900  92.2097330  73.0158830  19.9407300
  90.8936420  72.3342360  20.2491810  95.5128630  72.6831020   2.1611890
  96.3057240  72.9719850   1.7093680  94.9932980  72.2523190   1.4824370
 100.2449230  68.8026650  19.4747310  99.6387390  68.8258250  18.7343060
  99.9403340  68.0709690  20.0114560 101.6749600  72.5306940  18.0856720
 102.6271350  72.4464960  18.0356960 101.5277820  73.1948650  18.7590510
 104.5658800  71.9101150   3.5848630 104.2800310  71.4966290   2.7702810
 104.3678350  72.8388860   3.4649150  89.1282410  65.1820240  18.4707950
  89.6321430  64.6027520  19.0424180  88.3889830  65.4660470  19.0084320
  96.1820350  66.5891230  18.0043470  95.4166020  67.1576230  17.9198140
  96.3636310  66.2967440  17.1111700  99.2708760  66.9654460   2.6296230
  98.7218860  67.4123760   3.2738970  99.8928020  66.4603710   3.1533900
 103.3243700  68.3196560  18.5618490 104.0653170  68.6572320  18.0585950
 102.5616380  68.4888620  18.0088260  91.1605490  63.3249830  19.3658020
  91.2010830  63.0263700  20.2743250  92.0150990  63.7257440  19.2065540
  94.9383880  65.9245380   4.5261530  95.3600300  65.7585250   5.3692920
  95.0634720  65.1145610   4.0316670  93.1011300  61.9041930  17.3332510
  92.5707760  61.4132880  16.7055850  93.7699370  62.3326130  16.7990440
 101.9989360  66.3711390  17.0973700 102.4130380  66.5256470  17.9464120
 101.0640360  66.4966610  17.2599480 102.4711530  63.7107550  19.1012850
 103.0532300  62.9559870  19.0133330 102.6473300  64.2414990  18.3244330
  93.5883600  58.8704300  17.4129800  93.4940470  58.2525050  16.6880670
  93.0080990  59.5970590  17.1859710  96.3545040  57.4277540  14.4457190
  95.9062340  57.4501800  13.6002740  95.7210240  57.0296560  15.0427490
  96.7604590  66.3231870  15.0669630  97.1792700  67.1664600  14.8945870
  95.8413220  66.4603910  14.8376410  99.0968490  64.0548050  16.4507470
  99.2164700  63.4589190  17.1902310  99.9562490  64.0917740  16.0308770
 101.4356390  64.6085240  15.0269980 100.9091610  65.1327860  14.4235120
 101.7787730  65.2412630  15.6579710  94.6112010  72.6284880  16.1827360
  94.0733100  73.3530940  15.8636060  94.8645970  72.1515220  15.3924700
  95.8637260  60.5969400  17.7083290  96.4536950  60.2885250  18.3961110
  95.0457500  60.1249150  17.8643190 100.6830690  60.2135210  17.9416310
  99.9946210  59.5516750  17.8766300 101.4036710  59.7673480  18.3864770
 101.3131090  56.8086840   4.0006570 101.5933380  55.9654740   4.3565990
 100.5396820  57.0409950   4.5145320  97.4674220  73.8636090  16.4414010
  97.3932920  74.7671230  16.7486380  96.5653060  73.5447990  16.4136080
  95.8510510  58.0413850   2.4453770  95.5032510  57.3637840   1.8656220
  96.0523280  57.5803360   3.2597160  98.0159550  73.0294600   4.0640370
  98.9110340  73.3679570   4.0859130  98.0477180  72.3074010   3.4364650
  91.6555710  68.4021650   2.2927370  92.0930580  68.9451320   2.9484950
  92.1403440  67.5768600   2.3023710  88.8701510  71.1910680   9.7447630
  89.2004520  70.3231740   9.5126270  89.2992510  71.3969200  10.5752590
  93.4663430  69.5219690   7.4049600  93.1658970  69.3984660   8.3053510
  93.3600920  68.6628280   6.9965330  89.3591720  72.0581270  12.4829260
  88.9222710  72.2382070  13.3153410  89.9269400  72.8155890  12.3410980
 104.9953900  71.5598270  16.7706570 104.3955890  71.6190830  16.0270490
 105.1247800  70.6203250  16.9003420 106.2355350  69.3016090   2.1076280
 105.4048310  69.3692740   2.5783510 106.4127180  70.1920210   1.8043140
 105.6911810  66.0463570   4.6110480 106.4530720  66.6160220   4.7170170
 105.7066180  65.4790770   5.3818790  89.1916150  64.5701500   8.8418140
  88.5364990  64.3013140   8.1977840  90.0294100  64.4605980   8.3920120
 106.6971780  66.9013670   9.4552410 107.0680610  66.1180990   9.0488380
 107.3373710  67.5902770   9.2769710 103.6805540  68.2850250  14.8682730
 102.8665380  68.7147410  15.1308520 104.0879740  68.8968660  14.2551780
 105.7430980  66.3397940   1.7683000 106.0179820  67.2476820   1.6402220
 105.5541720  66.2760470   2.7044990 102.1406590  59.3642790   3.0636630
 102.5591470  59.1773770   2.2233290 101.8342650  58.5121840   3.3739560
 105.6396320  64.2766930   6.7612430 105.2639920  63.5094860   6.3293720
 104.9099440  64.6589630   7.2487360  90.2292080  64.9554070  13.3821480
  90.5965120  64.8681470  14.2617500  89.6602900  64.1920620  13.2828340
 105.0295940  63.4238450  16.3951950 104.7982030  63.1951200  15.4949900
 105.2900490  64.3438000  16.3496840  89.7808080  61.8663160  17.2879900
  88.8864130  61.8329920  17.6273610  90.3205630  62.0649950  18.0531150
 103.4684010  58.6494880  19.1731650 104.3454190  58.6578280  19.5565650
 103.4804850  57.9125720  18.5624000  88.4054230  61.7800430   4.7843470
  87.5018310  62.0430630   4.6095130  88.8894850  62.0511600   4.0043430
 104.9147280  62.5024420  10.0619670 105.4384760  62.0087070   9.4309840
 105.5006700  62.6374780  10.8067240 105.0937000  62.5864290  13.5839220
 104.1439710  62.5527830  13.6984210 105.2750010  63.4964400  13.3488990
  90.9481440  60.8365970   2.6937850  91.6573140  60.4149190   2.2085130
  90.2321380  60.9041200   2.0621200 104.4047250  61.7597770   6.0012080
 104.9006370  61.5268640   6.7860960 104.2063320  60.9209610   5.5849720
  90.2847790  56.1411490  11.6363120  90.9323980  55.5908870  11.1958280
  90.7049630  56.3954640  12.4578930 105.8334410  60.3958720   8.5349760
 105.7233690  60.2414760   9.4732030 106.5942000  59.8679660   8.2925170
 104.1800130  56.3352850  14.9932760 104.8172350  56.9486990  15.3591950
 104.3275020  56.3713510  14.0481990 106.7224680  58.2266640   1.7755900
 107.6473990  58.0947820   1.5674190 106.7000470  58.3059460   2.7292350
 106.7963170  58.9977300   4.4012610 106.0014670  58.9322420   4.9305520
 107.0006450  59.9327940   4.3897960 103.7381590  73.0368850   8.3951000
 104.3340660  72.7153420   7.7185420 103.9959740  72.5640670   9.1864270
  90.0379790  56.2967160  14.3788440  89.6894610  56.7530980  15.1446620
  89.7067490  55.4024290  14.4610870  91.6444160  69.4686760  18.5441630
  91.6013790  69.0979670  19.4256090  91.7755170  70.4064330  18.6843450
  95.3450190  71.0246350  14.1451350  95.1041550  71.2920910  13.2581870
  96.2852830  71.1952080  14.2002210  97.5504610  57.4879040  17.9007860
  97.4893500  58.0800870  18.6503270  98.4904990  57.3805000  17.7558120
 100.1879170  57.1449100  17.5400150 100.8019580  57.4628390  16.8781230
 100.7328730  56.6597690  18.1596010 106.6054350  73.0440730  14.9461990
 106.1112630  73.4409600  14.2289120 105.9967640  72.4189940  15.3399270
  90.7100430  55.8243360  17.6539210  91.2583420  55.6431410  16.8905320
  90.7755740  55.0337470  18.1895520  91.4832190  72.4149010  15.6639410
  90.8892510  72.2833710  16.4029450  91.4756030  71.5787150  15.1981510
 100.9287210  55.7081240  13.8669440 100.0547050  56.0416350  13.6642370
 100.8197960  55.2354420  14.6921310 101.8359190  57.9152110  15.2511160
 101.5072550  57.1003870  14.8712890 102.7841490  57.8721920  15.1276850
 104.2893800  73.6864150  12.2248730 103.8296770  74.4379960  11.8506750
 103.6606260  72.9670620  12.1663530  91.1144420  69.7807390  14.6147450
  90.3878480  69.1612680  14.5473400  91.1753570  70.1748000  13.7445530
  94.7189520  71.9952390  11.3996860  95.2354540  71.3839750  10.8745120
  95.3686900  72.4981170  11.8907870  97.4585020  72.8860880  12.2265840
  97.7462830  72.6315180  11.3498850  97.9708240  72.3338240  12.8171410
  98.6762030  56.6251080  12.8062350  97.8933820  57.0996580  13.0859110
  98.3824960  55.7205910  12.6975530 103.2283100  57.3274180  10.8511440
 103.6691190  57.2719280  10.0033040 102.9590690  58.2432190  10.9221620
 105.0921670  56.9589420   8.8620260 105.0310070  56.0150640   8.7151280
 105.8713700  57.0669510   9.4073720  89.3974420  73.0981780   7.8244210
  89.2296460  72.4652460   8.5226100  88.5308930  73.3041180   7.4738400
  90.0202440  56.9298560   5.3276070  90.7781800  57.0427440   4.7540100
  89.5579610  57.7667760   5.2819500  96.5616250  59.0437830   8.3178380
  95.7490760  58.6694720   7.9774260  97.0657890  58.2882910   8.6199570
 101.0641230  55.7080280   9.5561450 101.6670600  56.2800490  10.0309970
 100.3234220  56.2719720   9.3335350 104.2075830  56.1101840   4.8301730
 104.4026460  57.0085290   5.0969160 103.4205700  55.8788920   5.3234680
  91.0037120  71.7915010   5.2694350  90.4784740  72.1723040   4.5656310
  90.9281700  72.4165780   5.9904060  92.3927590  57.4562610   3.8678040
  92.9220350  56.6692410   3.7385990  93.0255910  58.1353800   4.1013570
  94.5865430  57.1937750   6.9223430  93.9568170  56.4925060   7.0893560
  94.0470570  57.9541880   6.7056590  97.5257380  73.8076980  19.5934040
  98.4524690  73.5721250  19.6370000  97.5107810  74.6348980  19.1120070
 105.7602440  73.3502550   6.5908290 105.9354630  72.6640290   5.9469210
 105.0624010  73.8749600   6.1984960  94.7120990  56.4721730  19.3575920
  94.4305260  56.9755330  18.5936740  95.0940690  55.6743480  18.9918050
  93.6030090  73.7397390   4.1443600  94.3348910  73.4556670   3.5967490
  93.8623760  73.5010670   5.0342980  92.7644880  69.8562120   4.1489930
  92.1353760  70.3247220   4.6975760  92.8792710  69.0111340   4.5836120
 101.3136450  55.8875310  19.9356390 101.2001900  56.2069920  20.8307910
 102.1306190  56.2887820  19.6393670 104.0934940  73.0346840  19.4175080
 104.8860260  72.5396070  19.2101040 104.3868090  73.7136980  20.0250690
 100.2194600  45.1324290  65.3965090 100.1388650  44.2178900  65.1256800
  99.8059020  45.6291360  64.6904800  98.3512640  46.9103310  67.2774360
  97.5754740  46.4303750  67.5672930  99.0025570  46.2308960  67.1030520
  92.3678470  47.2223120  68.1550120  91.5363350  46.9671830  68.5546630
  92.9759450  47.2933890  68.8908040 102.3720070  51.3163500  66.0573490
 101.9101600  50.5450740  66.3860660 103.1845620  51.3429570  66.5625940
  92.3479730  51.2563210  68.3508140  92.6507770  50.3660950  68.1718360
  93.0923320  51.8133430  68.1230390  90.7770420  42.1825010  61.9392510
  89.8887120  42.5240980  61.8372390  91.0611610  41.9825330  61.0473340
  88.7403430  44.7830660  67.8232210  89.3119540  44.0152860  67.8235850
  88.7404970  45.0819420  66.9138820  98.5983380  53.6021510  65.6777480
  97.9794820  54.0579010  65.1071920  99.4535160  53.7572970  65.2767180
  97.7921630  49.5860500  67.2844520  97.7229910  48.6450440  67.1233650
  98.5541490  49.6761910  67.8567090  89.9828300  40.1915020  69.6101140
  89.8031140  39.2940770  69.8903900  89.5808380  40.7386890  70.2848090
  98.8226800  42.3930880  67.5113450  99.1991620  41.5202760  67.3987120
  98.7246310  42.7289580  66.6203890  92.9531810  40.7656510  62.9730890
  93.0598560  41.6660240  63.2799650  92.0424170  40.7174480  62.6825540
 102.6050920  39.8881320  64.4441790 103.4260540  39.3977890  64.4867270
 102.6385000  40.4778980  65.1973630  90.6014970  42.6875520  68.2183480
  91.2825080  42.9513890  68.8370880  90.2863020  41.8476390  68.5521490
  94.7939540  43.7342880  67.3056070  95.3017760  44.2323850  67.9461090
  95.3252780  42.9578080  67.1295430 106.8950470  41.9048070  71.0085420
 106.1902640  42.2929780  70.4900530 107.1608390  42.5998360  71.6106350
  93.0775640  38.3741440  71.5719490  93.0794080  38.8913830  70.7665390
  92.2479950  37.8971620  71.5489420  99.4646730  48.4860750  63.0709390
  98.8464000  48.9510200  62.5072110  99.9769980  49.1788230  63.4878900
  94.3278490  48.0136620  69.7492990  93.9947870  48.6405540  70.3914060
  94.5045170  48.5398500  68.9694660 102.8412400  41.8281700  67.2169330
 102.1367970  42.1166590  67.7972440 103.2024560  42.6381810  66.8568890
  92.7590970  40.0851400  69.5789940  93.1007780  40.9293450  69.2843810
  91.8206780  40.2335140  69.6955280  93.5397590  49.9817420  71.5642170
  94.1571590  50.6568500  71.2826620  92.6790710  50.3905400  71.4729670
  88.8329930  49.1717280  60.4449020  88.4557910  49.6604380  59.7133920
  89.0903000  49.8442560  61.0755550 104.4575180  51.4456830  69.4796810
 103.7738700  52.1155940  69.4713480 104.9969470  51.6437480  68.7141670
 105.9099320  41.2736490  67.6078540 104.9624230  41.3075470  67.7393970
 106.2349310  42.0875440  67.9927900  96.4418860  37.5733670  65.9034530
  96.7493840  37.0180560  65.1870030  95.5119560  37.7078130  65.7207520
 101.9933920  53.2900960  68.1941990 102.0061080  52.8863250  67.3264250
 101.4409140  54.0648250  68.0903420 103.2879340  50.0117180  63.2832160
 103.1775670  49.0691510  63.4081580 103.2847590  50.3732820  64.1694920
 101.3919360  48.1930800  69.5224600 101.8088150  47.9790910  68.6878060
 102.1159180  48.4503590  70.0933220  98.8299620  45.6382500  62.6394650
  97.9028900  45.5719880  62.8683120  98.9824440  46.5762630  62.5249890
  98.8168700  41.9099500  59.6361810  97.8772370  42.0713460  59.7214270
  99.1351960  42.6285180  59.0897800 105.3381460  46.5918020  69.6140840
 104.5100090  46.6611110  69.1390970 105.9331940  47.1772330  69.1456670
 102.8596910  47.2002800  63.1429900 102.2409330  46.8622350  62.4956200
 102.8421360  46.5562560  63.8509090 102.3023470  43.3787340  70.5595710
 101.8894650  44.2041050  70.8135700 101.5699420  42.7932380  70.3672070
  94.4356260  46.1647240  65.4214380  94.0313260  45.4524490  64.9260280
  94.5219380  45.8200480  66.3102420  94.9037960  49.8514800  67.5853590
  94.6066250  49.2460270  66.9061370  95.8537780  49.8892110  67.4742950
  93.1484880  42.9390450  69.2013420  93.6999470  43.0485790  68.4266670
  93.6628390  43.3128050  69.9168650 102.9923570  53.4246670  71.2476690
 102.5154130  54.2318860  71.0549300 102.3085360  52.7725000  71.4002900
  93.9956390  49.5896490  74.2361390  93.0984920  49.8136460  74.4834790
  94.0209260  49.7131430  73.2872790 101.0361610  46.4389610  60.1502650
 101.4754890  45.6012040  60.0040470 101.7490030  47.0719010  60.2366790
  92.8227610  46.4609810  72.8118760  92.6835380  47.3332610  73.1806160
  91.9408970  46.1182620  72.6666700  99.1456990  51.3785680  64.1183890
  99.5852900  52.1210010  63.7039280  99.0843880  51.6212250  65.0422850
  94.6207960  52.4031510  75.0203910  94.5923390  52.8074460  74.1532340
  94.4572930  51.4741870  74.8575510 104.6178750  37.6932420  58.4643690
 104.3051410  37.7859250  59.3642760 105.3791220  38.2713450  58.4141120
  91.1360890  45.0592220  62.9221030  91.0158490  45.7854310  62.3102300
  90.8261780  44.2895130  62.4448940  88.7746260  48.2307360  68.7289670
  88.8526680  48.3656130  67.7845390  89.3887940  47.5223250  68.9217790
  90.0193890  49.9307550  65.1395850  89.6121970  50.0722140  64.2849450
  90.9106900  49.6467710  64.9367060 105.9756030  50.3771460  73.4768090
 106.1019090  50.1383340  72.5585270 106.0177410  49.5456000  73.9490170
  99.8372770  54.0799460  72.0462900 100.3517440  53.9907470  72.8485330
  98.9941850  54.4259160  72.3390810 101.8127170  54.3654800  61.4746900
 101.6528310  54.0757740  62.3728730 101.6473880  53.5894930  60.9392130
  94.2915550  54.1453330  63.2518520  94.1158030  53.2288870  63.0386320
  93.4371290  54.5040620  63.4916320 101.5153300  51.8742360  60.0344900
 100.8218460  51.8719650  59.3747180 102.2576160  51.4501680  59.6039070
 101.0803230  53.5005070  64.1093390 101.5360180  52.7194450  64.4232010
 101.4195750  54.2111890  64.6534570 105.8280040  42.4303920  74.4417830
 105.2124310  42.9383590  73.9133290 105.5076460  41.5302250  74.3843770
  88.8305780  49.2721530  71.2684130  88.9936820  48.8026890  70.4503500
  89.2958230  48.7645090  71.9332970  93.6024550  38.4027290  66.3044700
  93.1592700  39.1836830  65.9729220  94.1609540  38.7257180  67.0115640
  97.8894360  41.2695810  71.9080020  97.4273730  41.4778830  72.7199960
  97.4872470  40.4555160  71.6050690 102.8898870  42.4904760  73.0376680
 102.0392460  42.1910510  73.3585750 102.7300660  42.7346770  72.1260500
  99.9848580  43.9906510  75.1375470 100.3101990  43.1570260  74.7977700
 100.7728910  44.5135030  75.2853800  96.7183370  38.0237990  61.1850530
  96.0937550  38.0197860  61.9103840  96.6313490  37.1568950  60.7886500
  95.6400450  38.9474620  68.1634300  95.9372780  39.8537450  68.0826320
  96.1886010  38.4593400  67.5493870  93.3938770  43.5260860  64.0325950
  93.1679690  43.3098030  64.9372570  92.6131300  43.9589320  63.6871920
 100.6236530  43.5324230  62.6316600 100.0245420  44.2560030  62.4480220
 101.1716140  43.4701010  61.8493050  95.8337980  44.4246440  74.6986220
  95.7381580  43.4841170  74.5486620  96.6769960  44.6461510  74.3034290
  99.2301400  42.1687770  64.6619880  99.6230970  42.4859970  63.8488570
  99.5918250  41.2899650  64.7764400  90.9648520  40.8360110  72.8520000
  90.5711910  41.6835320  73.0592780  90.2766920  40.1986480  73.0428640
  88.2665570  38.7588570  66.8850080  87.9778620  39.3291430  67.5975060
  89.0111330  38.2793020  67.2481310  88.4535800  42.7008690  58.0952800
  88.3710470  43.6439450  58.2367790  88.1018860  42.5583600  57.2165150
  99.8156540  44.7593520  68.7570660  99.0837660  45.2680330  69.1060760
  99.4180880  43.9423500  68.4559440  96.2533930  41.4347720  67.1623150
  96.2569990  40.9937670  66.3127690  97.1485050  41.7565050  67.2694970
  92.1036310  41.3174210  66.1217360  91.7636360  41.7949440  66.8784410
  91.3413630  40.8639330  65.7618460  96.3154080  42.4359800  60.1529910
  96.4366900  42.3946280  61.1015730  95.9302590  43.2983950  59.9976640
 100.2782450  40.2127200  68.1693600 100.2955190  40.6635850  69.0135450
 100.0298030  39.3132840  68.3827040  95.3275580  44.7460940  59.5513210
  94.7592480  44.2979190  58.9249120  96.0364580  45.1053720  59.0178360
 103.7053200  37.6259380  74.0079980 104.0298970  36.8949040  74.5337960
 103.7409710  37.3073020  73.1060970  90.4044760  48.6472960  73.4279940
  90.0199550  48.0066630  74.0262900  90.7156950  49.3509080  73.9974670
  96.5541900  45.4949500  68.9088560  96.9212030  45.0208070  69.6549900
  96.3646960  46.3691070  69.2496900  89.4182390  40.2393190  65.0382030
  89.1329310  39.8748860  65.8760650  89.3561250  39.5073650  64.4245170
  94.3441270  44.5358140  71.2272770  94.0398340  45.4150120  71.4523130
  95.2987730  44.5957930  71.2630210  92.8723060  48.7419130  61.8239620
  92.0985320  48.2016750  61.6638340  93.6017690  48.2225740  61.4857380
 103.6311040  47.7384490  67.6166010 104.3510160  48.2339780  67.2262120
 103.4292860  47.0602380  66.9719880  99.0920980  39.1322450  61.7595400
  98.2785590  38.6335620  61.6840710  98.8982930  39.9720700  61.3431750
  99.0129840  47.8093550  73.5035010  98.9467150  46.8889220  73.2492600
  98.3834980  47.9068990  74.2179650 101.8069370  43.5042100  60.0557560
 102.6948990  43.8159330  59.8808900 101.7774460  42.6314350  59.6638140
  92.9160460  48.4099510  65.4618430  93.4339130  47.6067770  65.4075320
  92.4644480  48.3478650  66.3035260  97.8029960  49.6765790  60.7345730
  98.1445660  50.4208020  60.2389050  96.9742670  49.9896910  61.0970560
  90.4005000  45.3760880  72.3744130  90.0419940  46.0414730  72.9617470
  90.1059560  44.5444430  72.7456750  93.6018120  45.8345120  75.2583680
  93.3018260  45.9802300  74.3611500  94.3729360  45.2750410  75.1657070
  98.9446570  50.6314120  73.2538810  98.9591110  49.6995080  73.0357720
  98.2371670  50.7173880  73.8928580 104.0783640  44.8153940  59.5237420
 103.9947360  45.2468160  58.6733860 104.7977830  45.2752290  59.9564240
 105.1557780  47.2721460  72.6007390 104.4305970  47.8650240  72.4036780
 105.6833240  47.2645000  71.8020760 105.1070890  51.6696200  62.2519550
 104.4647050  51.0151820  62.5263270 104.7201550  52.0751290  61.4760220
 100.6857370  48.9981630  66.0991240 101.0381190  48.4009760  65.4392610
  99.8019700  48.6725860  66.2699490  96.7720650  49.7579320  63.5061650
  97.4591780  50.3048530  63.8869240  95.9853070  50.3020050  63.5411260
  88.9113050  45.3752140  58.9978730  89.7807900  45.6576940  59.2814650
  88.4203370  46.1888010  58.8827540  96.0747860  46.7625350  63.1187010
  96.5310640  47.5730600  63.3447200  95.7236070  46.4448490  63.9505500
  98.3780470  52.2731690  70.3479310  99.0222690  52.4791070  71.0252730
  98.7409910  51.5120090  69.8950160  91.9759640  37.1063000  63.5909530
  91.8474270  37.0980900  64.5394450  91.1521660  37.4446090  63.2400540
  99.6512550  50.2764040  69.0656760 100.2934780  49.5757200  69.1788930
 100.1761900  51.0562480  68.8853650 103.4968270  50.5612660  58.7895900
 103.2705850  49.8443100  59.3820540 103.1064470  50.3125100  57.9517650
 101.4250170  51.0758940  72.2692820 101.7606410  51.6625630  72.9470740
 100.5050510  50.9451650  72.4990610  89.2784300  54.5879520  59.5640360
  89.6381940  55.1868860  58.9097630  89.1376640  55.1339410  60.3375390
  88.9753570  38.8654120  73.0516230  88.2612090  39.0651040  73.6568840
  89.3948610  38.0893690  73.4231030 103.0784520  48.4784600  60.4510060
 102.7906220  48.9397290  61.2387940 103.8736690  48.0182370  60.7194280
  89.2626160  52.8534380  74.0382760  89.3717280  51.9129120  73.8978150
  88.6106720  53.1189130  73.3896490  97.2538750  51.1250270  75.4380880
  96.9335620  50.4059510  75.9826570  96.5797110  51.8005340  75.5116940
  95.2952920  51.9710720  60.3814030  95.2863020  52.7040410  59.7658540
  94.3751280  51.7242300  60.4740990  90.8959560  47.1925610  61.1260790
  90.2887510  47.9324510  61.1356090  91.3708910  47.2824970  60.2998990
 100.4692350  41.3576430  70.8017680 100.8373170  40.5371640  71.1297250
  99.6090550  41.4178320  71.2173330 103.8354380  40.3133370  61.6105240
 103.2067540  40.4179040  60.8963470 103.3406300  40.5330150  62.3999120
  98.2812520  52.0338960  59.0439220  98.3824500  51.8302950  58.1141200
  97.3814260  51.7797240  59.2487000  95.8038410  42.5919320  63.0263120
  95.0954560  43.0605660  63.4676730  96.0882890  41.9341330  63.6608310
  97.4294340  44.0116020  71.0255650  97.9279590  44.4861840  71.6907500
  97.5717290  43.0879540  71.2325680  99.8353840  39.3169980  64.4658910
  99.7121620  39.3356110  63.5168420 100.7838400  39.3648920  64.5857310
  96.9230630  54.5525280  63.7386890  97.1772130  54.5146670  62.8166260
  95.9743110  54.4258610  63.7315140  94.0073430  40.9004400  60.4013830
  94.8563960  41.3374550  60.3354020  93.6404700  41.2124660  61.2285890
 104.6361200  40.2283980  71.8684040 104.1334800  40.9689380  72.2077850
 105.4517860  40.6167980  71.5520830 102.9283210  45.4717160  65.3145400
 101.9873350  45.4867390  65.4893090 103.2427280  44.6853120  65.7605700
  92.9064850  47.1536760  58.8749360  93.6728120  47.0418120  59.4374790
  92.9839540  46.4574730  58.2226130  91.6011610  44.5861830  59.5582250
  91.6815200  43.6389340  59.6699650  92.4931360  44.9168710  59.6642910
 104.9308790  52.6426010  66.9899660 105.0556210  53.4657180  67.4623470
 105.7974350  52.4316740  66.6423810  92.4026320  54.7357220  66.6616790
  93.1388800  54.1872680  66.9325360  92.7867240  55.6013230  66.5222780
  89.2871800  50.8030790  62.5358300  88.3611580  51.0451930  62.5263710
  89.7528230  51.6305050  62.4143050  95.5128630  53.9087530  58.4842360
  96.3057240  54.1976360  58.0324150  94.9932980  53.4779700  57.8054840
 101.6749600  53.7563450  74.4087190 102.6271350  53.6721470  74.3587430
 101.5277820  54.4205160  75.0820980 104.5658800  53.1357660  59.9079100
 104.2800310  52.7222800  59.0933280 104.3678350  54.0645370  59.7879620
  89.1282410  46.4076750  74.7938420  89.6321430  45.8284030  75.3654650
  88.3889830  46.6916980  75.3314790  96.0306030  49.1290940  58.3484710
  95.9256670  48.5143290  59.0746090  95.8630250  48.6056830  57.5647720
  96.1820350  47.8147740  74.3273940  95.4166020  48.3832740  74.2428610
  96.3636310  47.5223950  73.4342170  99.2708760  48.1910970  58.9526700
  98.7218860  48.6380270  59.5969440  99.8928020  47.6860220  59.4764370
 103.3243700  49.5453070  74.8848960 104.0653170  49.8828830  74.3816420
 102.5616380  49.7145130  74.3318730  94.9383880  47.1501890  60.8492000
  95.3600300  46.9841760  61.6923390  95.0634720  46.3402120  60.3547140
  93.1011300  43.1298440  73.6562980  92.5707760  42.6389390  73.0286320
  93.7699370  43.5582640  73.1220910  97.4511520  46.1739500  58.0969100
  97.9717180  45.4588520  57.7310250  98.0979920  46.8125370  58.3969610
 101.9989360  47.5967900  73.4204170 102.4130380  47.7512980  74.2694590
 101.0640360  47.7223120  73.5829950 102.4711530  44.9364060  75.4243320
 103.0532300  44.1816380  75.3363800 102.6473300  45.4671500  74.6474800
  93.5883600  40.0960810  73.7360270  93.4940470  39.4781560  73.0111140
  93.0080990  40.8227100  73.5090180  96.3545040  38.6534050  70.7687660
  95.9062340  38.6758310  69.9233210  95.7210240  38.2553070  71.3657960
  96.7604590  47.5488380  71.3900100  97.1792700  48.3921110  71.2176340
  95.8413220  47.6860420  71.1606880  99.0968490  45.2804560  72.7737940
  99.2164700  44.6845700  73.5132780  99.9562490  45.3174250  72.3539240
 101.4356390  45.8341750  71.3500450 100.9091610  46.3584370  70.7465590
 101.7787730  46.4669140  71.9810180  93.8342780  43.2235120  57.7950160
  93.6331840  42.3602480  58.1563500  93.6634830  43.1368480  56.8571760
  94.6112010  53.8541390  72.5057830  94.0733100  54.5787450  72.1866530
  94.8645970  53.3771730  71.7155170  95.8637260  41.8225910  74.0313760
  96.4536950  41.5141760  74.7191580  95.0457500  41.3505660  74.1873660
 100.6830690  41.4391720  74.2646780  99.9946210  40.7773260  74.1996770
 101.4036710  40.9929990  74.7095240 101.3131090  38.0343350  60.3237040
 101.5933380  37.1911250  60.6796460 100.5396820  38.2666460  60.8375790
  92.6325580  40.3235740  57.7828040  92.9351480  40.3303170  56.8747190
  93.3720170  39.9733600  58.2795700  97.4674220  55.0892600  72.7644480
  97.3932920  55.9927740  73.0716850  96.5653060  54.7704500  72.7366550
  95.8510510  39.2670360  58.7684240  95.5032510  38.5894350  58.1886690
  96.0523280  38.8059870  59.5827630  98.0159550  54.2551110  60.3870840
  98.9110340  54.5936080  60.4089600  98.0477180  53.5330520  59.7595120
  91.6555710  49.6278160  58.6157840  92.0930580  50.1707830  59.2715420
  92.1403440  48.8025110  58.6254180  88.8701510  52.4167190  66.0678100
  89.2004520  51.5488250  65.8356740  89.2992510  52.6225710  66.8983060
  93.4663430  50.7476200  63.7280070  93.1658970  50.6241170  64.6283980
  93.3600920  49.8884790  63.3195800  89.3591720  53.2837780  68.8059730
  88.9222710  53.4638580  69.6383880  89.9269400  54.0412400  68.6641450
 104.9953900  52.7854780  73.0937040 104.3955890  52.8447340  72.3500960
 105.1247800  51.8459760  73.2233890 106.2355350  50.5272600  58.4306750
 105.4048310  50.5949250  58.9013980 106.4127180  51.4176720  58.1273610
 105.6911810  47.2720080  60.9340950 106.4530720  47.8416730  61.0400640
 105.7066180  46.7047280  61.7049260  89.1916150  45.7958010  65.1648610
  88.5364990  45.5269650  64.5208310  90.0294100  45.6862490  64.7150590
 106.6971780  48.1270180  65.7782880 107.0680610  47.3437500  65.3718850
 107.3373710  48.8159280  65.6000180 103.6805540  49.5106760  71.1913200
 102.8665380  49.9403920  71.4538990 104.0879740  50.1225170  70.5782250
 105.7430980  47.5654450  58.0913470 106.0179820  48.4733330  57.9632690
 105.5541720  47.5016980  59.0275460 102.1406590  40.5899300  59.3867100
 102.5591470  40.4030280  58.5463760 101.8342650  39.7378350  59.6970030
 105.6396320  45.5023440  63.0842900 105.2639920  44.7351370  62.6524190
 104.9099440  45.8846140  63.5717830  90.2292080  46.1810580  69.7051950
  90.5965120  46.0937980  70.5847970  89.6602900  45.4177130  69.6058810
 105.0295940  44.6494960  72.7182420 104.7982030  44.4207710  71.8180370
 105.2900490  45.5694510  72.6727310  89.7808080  43.0919670  73.6110370
  88.8864130  43.0586430  73.9504080  90.3205630  43.2906460  74.3761620
 103.4684010  39.8751390  75.4962120 104.3454190  39.8834790  75.8796120
 103.4804850  39.1382230  74.8854470  88.4054230  43.0056940  61.1073940
  87.5018310  43.2687140  60.9325600  88.8894850  43.2768110  60.3273900
 104.9147280  43.7280930  66.3850140 105.4384760  43.2343580  65.7540310
 105.5006700  43.8631290  67.1297710 105.0937000  43.8120800  69.9069690
 104.1439710  43.7784340  70.0214680 105.2750010  44.7220910  69.6719460
  90.9481440  42.0622480  59.0168320  91.6573140  41.6405700  58.5315600
  90.2321380  42.1297710  58.3851670  90.5955600  38.1161810  58.0570970
  91.3183730  38.6570750  58.3752190  90.8680120  37.8425230  57.1812510
 104.4047250  42.9854280  62.3242550 104.9006370  42.7525150  63.1091430
 104.2063320  42.1466120  61.9080190  90.2847790  37.3668000  67.9593590
  90.9323980  36.8165380  67.5188750  90.7049630  37.6211150  68.7809400
 105.8334410  41.6215230  64.8580230 105.7233690  41.4671270  65.7962500
 106.5942000  41.0936170  64.6155640 104.1800130  37.5609360  71.3163230
 104.8172350  38.1743500  71.6822420 104.3275020  37.5970020  70.3712460
 106.7224680  39.4523150  58.0986370 107.6473990  39.3204330  57.8904660
 106.7000470  39.5315970  59.0522820 106.7963170  40.2233810  60.7243080
 106.0014670  40.1578930  61.2535990 107.0006450  41.1584450  60.7128430
 103.7381590  54.2625360  64.7181470 104.3340660  53.9409930  64.0415890
 103.9959740  53.7897180  65.5094740  90.0379790  37.5223670  70.7018910
  89.6894610  37.9787490  71.4677090  89.7067490  36.6280800  70.7841340
  91.6444160  50.6943270  74.8672100  91.6013790  50.3236180  75.7486560
  91.7755170  51.6320840  75.0073920  95.3450190  52.2502860  70.4681820
  95.1041550  52.5177420  69.5812340  96.2852830  52.4208590  70.5232680
  97.5504610  38.7135550  74.2238330  97.4893500  39.3057380  74.9733740
  98.4904990  38.6061510  74.0788590 100.1879170  38.3705610  73.8630620
 100.8019580  38.6884900  73.2011700 100.7328730  37.8854200  74.4826480
 106.6054350  54.2697240  71.2692460 106.1112630  54.6666110  70.5519590
 105.9967640  53.6446450  71.6629740  90.7100430  37.0499870  73.9769680
  91.2583420  36.8687920  73.2135790  90.7755740  36.2593980  74.5125990
  91.4832190  53.6405520  71.9869880  90.8892510  53.5090220  72.7259920
  91.4756030  52.8043660  71.5211980 100.9287210  36.9337750  70.1899910
 100.0547050  37.2672860  69.9872840 100.8197960  36.4610930  71.0151780
 101.8359190  39.1408620  71.5741630 101.5072550  38.3260380  71.1943360
 102.7841490  39.0978430  71.4507320 104.2893800  54.9120660  68.5479200
 103.8296770  55.6636470  68.1737220 103.6606260  54.1927130  68.4894000
  91.1144420  51.0063900  70.9377920  90.3878480  50.3869190  70.8703870
  91.1753570  51.4004510  70.0676000  94.7189520  53.2208900  67.7227330
  95.2354540  52.6096260  67.1975590  95.3686900  53.7237680  68.2138340
  97.4585020  54.1117390  68.5496310  97.7462830  53.8571690  67.6729320
  97.9708240  53.5594750  69.1401880  98.6762030  37.8507590  69.1292820
  97.8933820  38.3253090  69.4089580  98.3824960  36.9462420  69.0206000
 103.2283100  38.5530690  67.1741910 103.6691190  38.4975790  66.3263510
 102.9590690  39.4688700  67.2452090 105.0921670  38.1845930  65.1850730
 105.0310070  37.2407150  65.0381750 105.8713700  38.2926020  65.7304190
  89.3974420  54.3238290  64.1474680  89.2296460  53.6908970  64.8456570
  88.5308930  54.5297690  63.7968870  90.0202440  38.1555070  61.6506540
  90.7781800  38.2683950  61.0770570  89.5579610  38.9924270  61.6049970
  96.5616250  40.2694340  64.6408850  95.7490760  39.8951230  64.3004730
  97.0657890  39.5139420  64.9430040 101.0641230  36.9336790  65.8791920
 101.6670600  37.5057000  66.3540440 100.3234220  37.4976230  65.6565820
 104.2075830  37.3358350  61.1532200 104.4026460  38.2341800  61.4199630
 103.4205700  37.1045430  61.6465150  91.0037120  53.0171520  61.5924820
  90.4784740  53.3979550  60.8886780  90.9281700  53.6422290  62.3134530
  92.3927590  38.6819120  60.1908510  92.9220350  37.8948920  60.0616460
  93.0255910  39.3610310  60.4244040  94.5865430  38.4194260  63.2453900
  93.9568170  37.7181570  63.4124030  94.0470570  39.1798390  63.0287060
  97.5257380  55.0333490  75.9164510  98.4524690  54.7977760  75.9600470
  97.5107810  55.8605490  75.4350540 105.7602440  54.5759060  62.9138760
 105.9354630  53.8896800  62.2699680 105.0624010  55.1006110  62.5215430
  94.7120990  37.6978240  75.6806390  94.4305260  38.2011840  74.9167210
  95.0940690  36.8999990  75.3148520  93.6030090  54.9653900  60.4674070
  94.3348910  54.6813180  59.9197960  93.8623760  54.7267180  61.3573450
  92.7644880  51.0818630  60.4720400  92.1353760  51.5503730  61.0206230
  92.8792710  50.2367850  60.9066590  89.9828300  40.1915020  50.8357650
  89.8031140  39.2940770  51.1160410  89.5808380  40.7386890  51.5104600
 106.8950470  41.9048070  52.2341930 106.1902640  42.2929780  51.7157040
 107.1608390  42.5998360  52.8362860  93.0775640  38.3741440  52.7976000
  93.0794080  38.8913830  51.9921900  92.2479950  37.8971620  52.7745930
  92.7590970  40.0851400  50.8046450  93.1007780  40.9293450  50.5100320
  91.8206780  40.2335140  50.9211790  93.5397590  49.9817420  52.7898680
  94.1571590  50.6568500  52.5083130  92.6790710  50.3905400  52.6986180
 104.4575180  51.4456830  50.7053320 103.7738700  52.1155940  50.6969990
 104.9969470  51.6437480  49.9398180 105.9099320  41.2736490  48.8335050
 104.9624230  41.3075470  48.9650480 106.2349310  42.0875440  49.2184410
  93.9956390  49.5896490  55.4617900  93.0984920  49.8136460  55.7091300
  94.0209260  49.7131430  54.5129300 101.0361610  46.4389610  41.3759160
 101.4754890  45.6012040  41.2296980 101.7490030  47.0719010  41.4623300
  92.8227610  46.4609810  54.0375270  92.6835380  47.3332610  54.4062670
  91.9408970  46.1182620  53.8923210  94.6207960  52.4031510  56.2460420
  94.5923390  52.8074460  55.3788850  94.4572930  51.4741870  56.0832020
 104.6178750  37.6932420  39.6900200 104.3051410  37.7859250  40.5899270
 105.3791220  38.2713450  39.6397630 106.5722780  53.1858610  57.5424590
 107.0482500  53.6641500  58.2213670 107.1929940  53.1176100  56.8170090
 105.9756030  50.3771460  54.7024600 106.1019090  50.1383340  53.7841780
 106.0177410  49.5456000  55.1746680 105.8280040  42.4303920  55.6674340
 105.2124310  42.9383590  55.1389800 105.5076460  41.5302250  55.6100280
 102.8898870  42.4904760  54.2633190 102.0392460  42.1910510  54.5842260
 102.7300660  42.7346770  53.3517010  99.9848580  43.9906510  56.3631980
 100.3101990  43.1570260  56.0234210 100.7728910  44.5135030  56.5110310
  95.8337980  44.4246440  55.9242730  95.7381580  43.4841170  55.7743130
  96.6769960  44.6461510  55.5290800  90.9648520  40.8360110  54.0776510
  90.5711910  41.6835320  54.2849290  90.2766920  40.1986480  54.2685150
  97.5393570  40.9195080  57.1473250  96.8491890  40.7267280  57.7819340
  98.2825870  41.2029720  57.6797550 103.7053200  37.6259380  55.2336490
 104.0298970  36.8949040  55.7594470 103.7409710  37.3073020  54.3317480
  94.3441270  44.5358140  52.4529280  94.0398340  45.4150120  52.6779640
  95.2987730  44.5957930  52.4886720  99.0129840  47.8093550  54.7291520
  98.9467150  46.8889220  54.4749110  98.3834980  47.9068990  55.4436160
 101.8069370  43.5042100  41.2814070 102.6948990  43.8159330  41.1065410
 101.7774460  42.6314350  40.8894650  93.6018120  45.8345120  56.4840190
  93.3018260  45.9802300  55.5868010  94.3729360  45.2750410  56.3913580
  98.9446570  50.6314120  54.4795320  98.9591110  49.6995080  54.2614230
  98.2371670  50.7173880  55.1185090 104.0783640  44.8153940  40.7493930
 103.9947360  45.2468160  39.8990370 104.7977830  45.2752290  41.1820750
 105.1557780  47.2721460  53.8263900 104.4305970  47.8650240  53.6293290
 105.6833240  47.2645000  53.0277270 105.1070890  51.6696200  43.4776060
 104.4647050  51.0151820  43.7519780 104.7201550  52.0751290  42.7016730
 103.4968270  50.5612660  40.0152410 103.2705850  49.8443100  40.6077050
 103.1064470  50.3125100  39.1774160 101.4250170  51.0758940  53.4949330
 101.7606410  51.6625630  54.1727250 100.5050510  50.9451650  53.7247120
  88.9753570  38.8654120  54.2772740  88.2612090  39.0651040  54.8825350
  89.3948610  38.0893690  54.6487540 103.0784520  48.4784600  41.6766570
 102.7906220  48.9397290  42.4644450 103.8736690  48.0182370  41.9450790
  89.2626160  52.8534380  55.2639270  89.3717280  51.9129120  55.1234660
  88.6106720  53.1189130  54.6153000  97.2538750  51.1250270  56.6637390
  96.9335620  50.4059510  57.2083080  96.5797110  51.8005340  56.7373450
 103.8354380  40.3133370  42.8361750 103.2067540  40.4179040  42.1219980
 103.3406300  40.5330150  43.6255630 104.6361200  40.2283980  53.0940550
 104.1334800  40.9689380  53.4334360 105.4517860  40.6167980  52.7777340
  91.4084600  53.9203290  57.0758880  92.2097330  54.2415340  57.4894280
  90.8936420  53.5598870  57.7978790 100.2449230  50.0283160  57.0234290
  99.6387390  50.0514760  56.2830040  99.9403340  49.2966200  57.5601540
 101.6749600  53.7563450  55.6343700 102.6271350  53.6721470  55.5843940
 101.5277820  54.4205160  56.3077490 104.5658800  53.1357660  41.1335610
 104.2800310  52.7222800  40.3189790 104.3678350  54.0645370  41.0136130
  89.1282410  46.4076750  56.0194930  89.6321430  45.8284030  56.5911160
  88.3889830  46.6916980  56.5571300  96.1820350  47.8147740  55.5530450
  95.4166020  48.3832740  55.4685120  96.3636310  47.5223950  54.6598680
  99.2708760  48.1910970  40.1783210  98.7218860  48.6380270  40.8225950
  99.8928020  47.6860220  40.7020880 103.3243700  49.5453070  56.1105470
 104.0653170  49.8828830  55.6072930 102.5616380  49.7145130  55.5575240
  91.1605490  44.5506340  56.9145000  91.2010830  44.2520210  57.8230230
  92.0150990  44.9513950  56.7552520  93.1011300  43.1298440  54.8819490
  92.5707760  42.6389390  54.2542830  93.7699370  43.5582640  54.3477420
 101.9989360  47.5967900  54.6460680 102.4130380  47.7512980  55.4951100
 101.0640360  47.7223120  54.8086460 102.4711530  44.9364060  56.6499830
 103.0532300  44.1816380  56.5620310 102.6473300  45.4671500  55.8731310
  93.5883600  40.0960810  54.9616780  93.4940470  39.4781560  54.2367650
  93.0080990  40.8227100  54.7346690  96.3545040  38.6534050  51.9944170
  95.9062340  38.6758310  51.1489720  95.7210240  38.2553070  52.5914470
  96.7604590  47.5488380  52.6156610  97.1792700  48.3921110  52.4432850
  95.8413220  47.6860420  52.3863390  99.0968490  45.2804560  53.9994450
  99.2164700  44.6845700  54.7389290  99.9562490  45.3174250  53.5795750
 101.4356390  45.8341750  52.5756960 100.9091610  46.3584370  51.9722100
 101.7787730  46.4669140  53.2066690  95.8637260  41.8225910  55.2570270
  96.4536950  41.5141760  55.9448090  95.0457500  41.3505660  55.4130170
 100.6830690  41.4391720  55.4903290  99.9946210  40.7773260  55.4253280
 101.4036710  40.9929990  55.9351750 101.3131090  38.0343350  41.5493550
 101.5933380  37.1911250  41.9052970 100.5396820  38.2666460  42.0632300
  97.4674220  55.0892600  53.9900990  97.3932920  55.9927740  54.2973360
  96.5653060  54.7704500  53.9623060 104.9953900  52.7854780  54.3193550
 104.3955890  52.8447340  53.5757470 105.1247800  51.8459760  54.4490400
 106.2355350  50.5272600  39.6563260 105.4048310  50.5949250  40.1270490
 106.4127180  51.4176720  39.3530120 105.6911810  47.2720080  42.1597460
 106.4530720  47.8416730  42.2657150 105.7066180  46.7047280  42.9305770
 105.7430980  47.5654450  39.3169980 106.0179820  48.4733330  39.1889200
 105.5541720  47.5016980  40.2531970 102.1406590  40.5899300  40.6123610
 102.5591470  40.4030280  39.7720270 101.8342650  39.7378350  40.9226540
 105.0295940  44.6494960  53.9438930 104.7982030  44.4207710  53.0436880
 105.2900490  45.5694510  53.8983820  89.7808080  43.0919670  54.8366880
  88.8864130  43.0586430  55.1760590  90.3205630  43.2906460  55.6018130
 103.4684010  39.8751390  56.7218630 104.3454190  39.8834790  57.1052630
 103.4804850  39.1382230  56.1110980 104.4047250  42.9854280  43.5499060
 104.9006370  42.7525150  44.3347940 104.2063320  42.1466120  43.1336700
  90.2847790  37.3668000  49.1850100  90.9323980  36.8165380  48.7445260
  90.7049630  37.6211150  50.0065910 105.8334410  41.6215230  46.0836740
 105.7233690  41.4671270  47.0219010 106.5942000  41.0936170  45.8412150
 104.1800130  37.5609360  52.5419740 104.8172350  38.1743500  52.9078930
 104.3275020  37.5970020  51.5968970 106.7224680  39.4523150  39.3242880
 107.6473990  39.3204330  39.1161170 106.7000470  39.5315970  40.2779330
 106.7963170  40.2233810  41.9499590 106.0014670  40.1578930  42.4792500
 107.0006450  41.1584450  41.9384940  90.0379790  37.5223670  51.9275420
  89.6894610  37.9787490  52.6933600  89.7067490  36.6280800  52.0097850
  91.6444160  50.6943270  56.0928610  91.6013790  50.3236180  56.9743070
  91.7755170  51.6320840  56.2330430  97.5504610  38.7135550  55.4494840
  97.4893500  39.3057380  56.1990250  98.4904990  38.6061510  55.3045100
 100.1879170  38.3705610  55.0887130 100.8019580  38.6884900  54.4268210
 100.7328730  37.8854200  55.7082990 106.6054350  54.2697240  52.4948970
 106.1112630  54.6666110  51.7776100 105.9967640  53.6446450  52.8886250
  90.7100430  37.0499870  55.2026190  91.2583420  36.8687920  54.4392300
  90.7755740  36.2593980  55.7382500  91.4832190  53.6405520  53.2126390
  90.8892510  53.5090220  53.9516430  91.4756030  52.8043660  52.7468490
 104.2075830  37.3358350  42.3788710 104.4026460  38.2341800  42.6456140
 103.4205700  37.1045430  42.8721660  97.5257380  55.0333490  57.1421020
  98.4524690  54.7977760  57.1856980  97.5107810  55.8605490  56.6607050
 105.7602440  54.5759060  44.1395270 105.9354630  53.8896800  43.4956190
 105.0624010  55.1006110  43.7471940  94.7120990  37.6978240  56.9062900
  94.4305260  38.2011840  56.1423720  95.0940690  36.8999990  56.5405030
 101.3136450  37.1131820  57.4843370 101.2001900  37.4326430  58.3794890
 102.1306190  37.5144330  57.1880650 104.0934940  54.2603350  56.9662060
 104.8860260  53.7652580  56.7588020 104.3868090  54.9393490  57.5737670
 102.3720070  51.3163500  28.5086510 101.9101600  50.5450740  28.8373680
 103.1845620  51.3429570  29.0138960  98.5983380  53.6021510  28.1290500
  97.9794820  54.0579010  27.5584940  99.4535160  53.7572970  27.7280200
  97.7921630  49.5860500  29.7357540  97.7229910  48.6450440  29.5746670
  98.5541490  49.6761910  30.3080110 102.6050920  39.8881320  26.8954810
 103.4260540  39.3977890  26.9380290 102.6385000  40.4778980  27.6486650
 106.8950470  41.9048070  33.4598440 106.1902640  42.2929780  32.9413550
 107.1608390  42.5998360  34.0619370  99.4646730  48.4860750  25.5222410
  98.8464000  48.9510200  24.9585130  99.9769980  49.1788230  25.9391920
 102.8412400  41.8281700  29.6682350 102.1367970  42.1166590  30.2485460
 103.2024560  42.6381810  29.3081910  88.8329930  49.1717280  22.8962040
  88.4557910  49.6604380  22.1646940  89.0903000  49.8442560  23.5268570
 104.4575180  51.4456830  31.9309830 103.7738700  52.1155940  31.9226500
 104.9969470  51.6437480  31.1654690 105.9099320  41.2736490  30.0591560
 104.9624230  41.3075470  30.1906990 106.2349310  42.0875440  30.4440920
  96.4418860  37.5733670  28.3547550  96.7493840  37.0180560  27.6383050
  95.5119560  37.7078130  28.1720540 101.9933920  53.2900960  30.6455010
 102.0061080  52.8863250  29.7777270 101.4409140  54.0648250  30.5416440
 103.2879340  50.0117180  25.7345180 103.1775670  49.0691510  25.8594600
 103.2847590  50.3732820  26.6207940 101.3919360  48.1930800  31.9737620
 101.8088150  47.9790910  31.1391080 102.1159180  48.4503590  32.5446240
  98.8299620  45.6382500  25.0907670  97.9028900  45.5719880  25.3196140
  98.9824440  46.5762630  24.9762910  98.8168700  41.9099500  22.0874830
  97.8772370  42.0713460  22.1727290  99.1351960  42.6285180  21.5410820
 105.3381460  46.5918020  32.0653860 104.5100090  46.6611110  31.5903990
 105.9331940  47.1772330  31.5969690 102.8596910  47.2002800  25.5942920
 102.2409330  46.8622350  24.9469220 102.8421360  46.5562560  26.3022110
 102.3023470  43.3787340  33.0108730 101.8894650  44.2041050  33.2648720
 101.5699420  42.7932380  32.8185090  94.9037960  49.8514800  30.0366610
  94.6066250  49.2460270  29.3574390  95.8537780  49.8892110  29.9255970
 102.9923570  53.4246670  33.6989710 102.5154130  54.2318860  33.5062320
 102.3085360  52.7725000  33.8515920 101.0361610  46.4389610  22.6015670
 101.4754890  45.6012040  22.4553490 101.7490030  47.0719010  22.6879810
  99.1456990  51.3785680  26.5696910  99.5852900  52.1210010  26.1552300
  99.0843880  51.6212250  27.4935870 104.6178750  37.6932420  20.9156710
 104.3051410  37.7859250  21.8155780 105.3791220  38.2713450  20.8654140
 106.5722780  53.1858610  38.7681100 107.0482500  53.6641500  39.4470180
 107.1929940  53.1176100  38.0426600 105.9756030  50.3771460  35.9281110
 106.1019090  50.1383340  35.0098290 106.0177410  49.5456000  36.4003190
  99.8372770  54.0799460  34.4975920 100.3517440  53.9907470  35.2998350
  98.9941850  54.4259160  34.7903830 101.8127170  54.3654800  23.9259920
 101.6528310  54.0757740  24.8241750 101.6473880  53.5894930  23.3905150
 101.5153300  51.8742360  22.4857920 100.8218460  51.8719650  21.8260200
 102.2576160  51.4501680  22.0552090 101.0803230  53.5005070  26.5606410
 101.5360180  52.7194450  26.8745030 101.4195750  54.2111890  27.1047590
 105.8280040  42.4303920  36.8930850 105.2124310  42.9383590  36.3646310
 105.5076460  41.5302250  36.8356790  97.8894360  41.2695810  34.3593040
  97.4273730  41.4778830  35.1712980  97.4872470  40.4555160  34.0563710
 102.8898870  42.4904760  35.4889700 102.0392460  42.1910510  35.8098770
 102.7300660  42.7346770  34.5773520  99.9848580  43.9906510  37.5888490
 100.3101990  43.1570260  37.2490720 100.7728910  44.5135030  37.7366820
  96.7183370  38.0237990  23.6363550  96.0937550  38.0197860  24.3616860
  96.6313490  37.1568950  23.2399520 100.6236530  43.5324230  25.0829620
 100.0245420  44.2560030  24.8993240 101.1716140  43.4701010  24.3006070
 100.2782450  40.2127200  30.6206620 100.2955190  40.6635850  31.4648470
 100.0298030  39.3132840  30.8340060 103.7053200  37.6259380  36.4593000
 104.0298970  36.8949040  36.9850980 103.7409710  37.3073020  35.5573990
 103.6311040  47.7384490  30.0679030 104.3510160  48.2339780  29.6775140
 103.4292860  47.0602380  29.4232900  99.0920980  39.1322450  24.2108420
  98.2785590  38.6335620  24.1353730  98.8982930  39.9720700  23.7944770
  99.0129840  47.8093550  35.9548030  98.9467150  46.8889220  35.7005620
  98.3834980  47.9068990  36.6692670 101.8069370  43.5042100  22.5070580
 102.6948990  43.8159330  22.3321920 101.7774460  42.6314350  22.1151160
  92.9160460  48.4099510  27.9131450  93.4339130  47.6067770  27.8588340
  92.4644480  48.3478650  28.7548280  97.8029960  49.6765790  23.1858750
  98.1445660  50.4208020  22.6902070  96.9742670  49.9896910  23.5483580
  98.9446570  50.6314120  35.7051830  98.9591110  49.6995080  35.4870740
  98.2371670  50.7173880  36.3441600 104.0783640  44.8153940  21.9750440
 103.9947360  45.2468160  21.1246880 104.7977830  45.2752290  22.4077260
 105.1557780  47.2721460  35.0520410 104.4305970  47.8650240  34.8549800
 105.6833240  47.2645000  34.2533780 105.1070890  51.6696200  24.7032570
 104.4647050  51.0151820  24.9776290 104.7201550  52.0751290  23.9273240
 100.6857370  48.9981630  28.5504260 101.0381190  48.4009760  27.8905630
  99.8019700  48.6725860  28.7212510  96.7720650  49.7579320  25.9574670
  97.4591780  50.3048530  26.3382260  95.9853070  50.3020050  25.9924280
  98.3780470  52.2731690  32.7992330  99.0222690  52.4791070  33.4765750
  98.7409910  51.5120090  32.3463180  99.6512550  50.2764040  31.5169780
 100.2934780  49.5757200  31.6301950 100.1761900  51.0562480  31.3366670
 103.4968270  50.5612660  21.2408920 103.2705850  49.8443100  21.8333560
 103.1064470  50.3125100  20.4030670 101.4250170  51.0758940  34.7205840
 101.7606410  51.6625630  35.3983760 100.5050510  50.9451650  34.9503630
  89.2784300  54.5879520  22.0153380  89.6381940  55.1868860  21.3610650
  89.1376640  55.1339410  22.7888410 103.0784520  48.4784600  22.9023080
 102.7906220  48.9397290  23.6900960 103.8736690  48.0182370  23.1707300
  97.2538750  51.1250270  37.8893900  96.9335620  50.4059510  38.4339590
  96.5797110  51.8005340  37.9629960  95.2952920  51.9710720  22.8327050
  95.2863020  52.7040410  22.2171560  94.3751280  51.7242300  22.9254010
 100.4692350  41.3576430  33.2530700 100.8373170  40.5371640  33.5810270
  99.6090550  41.4178320  33.6686350 103.8354380  40.3133370  24.0618260
 103.2067540  40.4179040  23.3476490 103.3406300  40.5330150  24.8512140
  98.2812520  52.0338960  21.4952240  98.3824500  51.8302950  20.5654220
  97.3814260  51.7797240  21.7000020  97.4294340  44.0116020  33.4768670
  97.9279590  44.4861840  34.1420520  97.5717290  43.0879540  33.6838700
  99.8353840  39.3169980  26.9171930  99.7121620  39.3356110  25.9681440
 100.7838400  39.3648920  27.0370330 104.6361200  40.2283980  34.3197060
 104.1334800  40.9689380  34.6590870 105.4517860  40.6167980  34.0033850
 102.9283210  45.4717160  27.7658420 101.9873350  45.4867390  27.9406110
 103.2427280  44.6853120  28.2118720 104.9308790  52.6426010  29.4412680
 105.0556210  53.4657180  29.9136490 105.7974350  52.4316740  29.0936830
  95.5128630  53.9087530  20.9355380  96.3057240  54.1976360  20.4837170
  94.9932980  53.4779700  20.2567860 100.2449230  50.0283160  38.2490800
  99.6387390  50.0514760  37.5086550  99.9403340  49.2966200  38.7858050
 101.6749600  53.7563450  36.8600210 102.6271350  53.6721470  36.8100450
 101.5277820  54.4205160  37.5334000 104.5658800  53.1357660  22.3592120
 104.2800310  52.7222800  21.5446300 104.3678350  54.0645370  22.2392640
  96.0306030  49.1290940  20.7997730  95.9256670  48.5143290  21.5259110
  95.8630250  48.6056830  20.0160740  96.1820350  47.8147740  36.7786960
  95.4166020  48.3832740  36.6941630  96.3636310  47.5223950  35.8855190
  99.2708760  48.1910970  21.4039720  98.7218860  48.6380270  22.0482460
  99.8928020  47.6860220  21.9277390 103.3243700  49.5453070  37.3361980
 104.0653170  49.8828830  36.8329440 102.5616380  49.7145130  36.7831750
  97.4511520  46.1739500  20.5482120  97.9717180  45.4588520  20.1823270
  98.0979920  46.8125370  20.8482630 101.9989360  47.5967900  35.8717190
 102.4130380  47.7512980  36.7207610 101.0640360  47.7223120  36.0342970
 102.4711530  44.9364060  37.8756340 103.0532300  44.1816380  37.7876820
 102.6473300  45.4671500  37.0987820  96.3545040  38.6534050  33.2200680
  95.9062340  38.6758310  32.3746230  95.7210240  38.2553070  33.8170980
  96.7604590  47.5488380  33.8413120  97.1792700  48.3921110  33.6689360
  95.8413220  47.6860420  33.6119900  99.0968490  45.2804560  35.2250960
  99.2164700  44.6845700  35.9645800  99.9562490  45.3174250  34.8052260
 101.4356390  45.8341750  33.8013470 100.9091610  46.3584370  33.1978610
 101.7787730  46.4669140  34.4323200 100.6830690  41.4391720  36.7159800
  99.9946210  40.7773260  36.6509790 101.4036710  40.9929990  37.1608260
 101.3131090  38.0343350  22.7750060 101.5933380  37.1911250  23.1309480
 100.5396820  38.2666460  23.2888810  98.0159550  54.2551110  22.8383860
  98.9110340  54.5936080  22.8602620  98.0477180  53.5330520  22.2108140
  93.4663430  50.7476200  26.1793090  93.1658970  50.6241170  27.0797000
  93.3600920  49.8884790  25.7708820 104.9953900  52.7854780  35.5450060
 104.3955890  52.8447340  34.8013980 105.1247800  51.8459760  35.6746910
 106.2355350  50.5272600  20.8819770 105.4048310  50.5949250  21.3527000
 106.4127180  51.4176720  20.5786630 105.6911810  47.2720080  23.3853970
 106.4530720  47.8416730  23.4913660 105.7066180  46.7047280  24.1562280
 106.6971780  48.1270180  28.2295900 107.0680610  47.3437500  27.8231870
 107.3373710  48.8159280  28.0513200 103.6805540  49.5106760  33.6426220
 102.8665380  49.9403920  33.9052010 104.0879740  50.1225170  33.0295270
 105.7430980  47.5654450  20.5426490 106.0179820  48.4733330  20.4145710
 105.5541720  47.5016980  21.4788480 102.1406590  40.5899300  21.8380120
 102.5591470  40.4030280  20.9976780 101.8342650  39.7378350  22.1483050
 105.6396320  45.5023440  25.5355920 105.2639920  44.7351370  25.1037210
 104.9099440  45.8846140  26.0230850 105.0295940  44.6494960  35.1695440
 104.7982030  44.4207710  34.2693390 105.2900490  45.5694510  35.1240330
 103.4684010  39.8751390  37.9475140 104.3454190  39.8834790  38.3309140
 103.4804850  39.1382230  37.3367490 104.9147280  43.7280930  28.8363160
 105.4384760  43.2343580  28.2053330 105.5006700  43.8631290  29.5810730
 105.0937000  43.8120800  32.3582710 104.1439710  43.7784340  32.4727700
 105.2750010  44.7220910  32.1232480 104.4047250  42.9854280  24.7755570
 104.9006370  42.7525150  25.5604450 104.2063320  42.1466120  24.3593210
 105.8334410  41.6215230  27.3093250 105.7233690  41.4671270  28.2475520
 106.5942000  41.0936170  27.0668660 104.1800130  37.5609360  33.7676250
 104.8172350  38.1743500  34.1335440 104.3275020  37.5970020  32.8225480
 106.7224680  39.4523150  20.5499390 107.6473990  39.3204330  20.3417680
 106.7000470  39.5315970  21.5035840 106.7963170  40.2233810  23.1756100
 106.0014670  40.1578930  23.7049010 107.0006450  41.1584450  23.1641450
 103.7381590  54.2625360  27.1694490 104.3340660  53.9409930  26.4928910
 103.9959740  53.7897180  27.9607760 100.1879170  38.3705610  36.3143640
 100.8019580  38.6884900  35.6524720 100.7328730  37.8854200  36.9339500
 106.6054350  54.2697240  33.7205480 106.1112630  54.6666110  33.0032610
 105.9967640  53.6446450  34.1142760 100.9287210  36.9337750  32.6412930
 100.0547050  37.2672860  32.4385860 100.8197960  36.4610930  33.4664800
 101.8359190  39.1408620  34.0254650 101.5072550  38.3260380  33.6456380
 102.7841490  39.0978430  33.9020340 104.2893800  54.9120660  30.9992220
 103.8296770  55.6636470  30.6250240 103.6606260  54.1927130  30.9407020
  98.6762030  37.8507590  31.5805840  97.8933820  38.3253090  31.8602600
  98.3824960  36.9462420  31.4719020 103.2283100  38.5530690  29.6254930
 103.6691190  38.4975790  28.7776530 102.9590690  39.4688700  29.6965110
 105.0921670  38.1845930  27.6363750 105.0310070  37.2407150  27.4894770
 105.8713700  38.2926020  28.1817210 101.0641230  36.9336790  28.3304940
 101.6670600  37.5057000  28.8053460 100.3234220  37.4976230  28.1078840
 104.2075830  37.3358350  23.6045220 104.4026460  38.2341800  23.8712650
 103.4205700  37.1045430  24.0978170 105.7602440  54.5759060  25.3651780
 105.9354630  53.8896800  24.7212700 105.0624010  55.1006110  24.9728450
  93.6030090  54.9653900  22.9187090  94.3348910  54.6813180  22.3710980
  93.8623760  54.7267180  23.8086470  92.7644880  51.0818630  22.9233420
  92.1353760  51.5503730  23.4719250  92.8792710  50.2367850  23.3579610
 101.3136450  37.1131820  38.7099880 101.2001900  37.4326430  39.6051400
 102.1306190  37.5144330  38.4137160 104.0934940  54.2603350  38.1918570
 104.8860260  53.7652580  37.9844530 104.3868090  54.9393490  38.7994180
 100.2194600  45.1324290   9.0734620 100.1388650  44.2178900   8.8026330
  99.8059020  45.6291360   8.3674330  98.3512640  46.9103310  10.9543890
  97.5754740  46.4303750  11.2442460  99.0025570  46.2308960  10.7800050
  92.3678470  47.2223120  11.8319650  91.5363350  46.9671830  12.2316160
  92.9759450  47.2933890  12.5677570 102.3720070  51.3163500   9.7343020
 101.9101600  50.5450740  10.0630190 103.1845620  51.3429570  10.2395470
  92.3479730  51.2563210  12.0277670  92.6507770  50.3660950  11.8487890
  93.0923320  51.8133430  11.7999920  90.7770420  42.1825010   5.6162040
  89.8887120  42.5240980   5.5141920  91.0611610  41.9825330   4.7242870
  88.7403430  44.7830660  11.5001740  89.3119540  44.0152860  11.5005380
  88.7404970  45.0819420  10.5908350  98.5983380  53.6021510   9.3547010
  97.9794820  54.0579010   8.7841450  99.4535160  53.7572970   8.9536710
  97.7921630  49.5860500  10.9614050  97.7229910  48.6450440  10.8003180
  98.5541490  49.6761910  11.5336620  89.9828300  40.1915020  13.2870670
  89.8031140  39.2940770  13.5673430  89.5808380  40.7386890  13.9617620
  98.8226800  42.3930880  11.1882980  99.1991620  41.5202760  11.0756650
  98.7246310  42.7289580  10.2973420  92.9531810  40.7656510   6.6500420
  93.0598560  41.6660240   6.9569180  92.0424170  40.7174480   6.3595070
 102.6050920  39.8881320   8.1211320 103.4260540  39.3977890   8.1636800
 102.6385000  40.4778980   8.8743160  90.6014970  42.6875520  11.8953010
  91.2825080  42.9513890  12.5140410  90.2863020  41.8476390  12.2291020
  94.7939540  43.7342880  10.9825600  95.3017760  44.2323850  11.6230620
  95.3252780  42.9578080  10.8064960 106.8950470  41.9048070  14.6854950
 106.1902640  42.2929780  14.1670060 107.1608390  42.5998360  15.2875880
  99.4646730  48.4860750   6.7478920  98.8464000  48.9510200   6.1841640
  99.9769980  49.1788230   7.1648430  94.3278490  48.0136620  13.4262520
  93.9947870  48.6405540  14.0683590  94.5045170  48.5398500  12.6464190
 102.8412400  41.8281700  10.8938860 102.1367970  42.1166590  11.4741970
 103.2024560  42.6381810  10.5338420  92.7590970  40.0851400  13.2559470
  93.1007780  40.9293450  12.9613340  91.8206780  40.2335140  13.3724810
  93.5397590  49.9817420  15.2411700  94.1571590  50.6568500  14.9596150
  92.6790710  50.3905400  15.1499200  88.8329930  49.1717280   4.1218550
  88.4557910  49.6604380   3.3903450  89.0903000  49.8442560   4.7525080
 104.4575180  51.4456830  13.1566340 103.7738700  52.1155940  13.1483010
 104.9969470  51.6437480  12.3911200 105.9099320  41.2736490  11.2848070
 104.9624230  41.3075470  11.4163500 106.2349310  42.0875440  11.6697430
  96.4418860  37.5733670   9.5804060  96.7493840  37.0180560   8.8639560
  95.5119560  37.7078130   9.3977050 101.9933920  53.2900960  11.8711520
 102.0061080  52.8863250  11.0033780 101.4409140  54.0648250  11.7672950
 103.2879340  50.0117180   6.9601690 103.1775670  49.0691510   7.0851110
 103.2847590  50.3732820   7.8464450 101.3919360  48.1930800  13.1994130
 101.8088150  47.9790910  12.3647590 102.1159180  48.4503590  13.7702750
  98.8299620  45.6382500   6.3164180  97.9028900  45.5719880   6.5452650
  98.9824440  46.5762630   6.2019420  98.8168700  41.9099500   3.3131340
  97.8772370  42.0713460   3.3983800  99.1351960  42.6285180   2.7667330
 105.3381460  46.5918020  13.2910370 104.5100090  46.6611110  12.8160500
 105.9331940  47.1772330  12.8226200 102.8596910  47.2002800   6.8199430
 102.2409330  46.8622350   6.1725730 102.8421360  46.5562560   7.5278620
 102.3023470  43.3787340  14.2365240 101.8894650  44.2041050  14.4905230
 101.5699420  42.7932380  14.0441600  94.4356260  46.1647240   9.0983910
  94.0313260  45.4524490   8.6029810  94.5219380  45.8200480   9.9871950
  94.9037960  49.8514800  11.2623120  94.6066250  49.2460270  10.5830900
  95.8537780  49.8892110  11.1512480  93.1484880  42.9390450  12.8782950
  93.6999470  43.0485790  12.1036200  93.6628390  43.3128050  13.5938180
 102.9923570  53.4246670  14.9246220 102.5154130  54.2318860  14.7318830
 102.3085360  52.7725000  15.0772430  93.9956390  49.5896490  17.9130920
  93.0984920  49.8136460  18.1604320  94.0209260  49.7131430  16.9642320
 101.0361610  46.4389610   3.8272180 101.4754890  45.6012040   3.6810000
 101.7490030  47.0719010   3.9136320  92.8227610  46.4609810  16.4888290
  92.6835380  47.3332610  16.8575690  91.9408970  46.1182620  16.3436230
  99.1456990  51.3785680   7.7953420  99.5852900  52.1210010   7.3808810
  99.0843880  51.6212250   8.7192380  94.6207960  52.4031510  18.6973440
  94.5923390  52.8074460  17.8301870  94.4572930  51.4741870  18.5345040
 104.6178750  37.6932420   2.1413220 104.3051410  37.7859250   3.0412290
 105.3791220  38.2713450   2.0910650  91.1360890  45.0592220   6.5990560
  91.0158490  45.7854310   5.9871830  90.8261780  44.2895130   6.1218470
 106.5722780  53.1858610  19.9937610 107.0482500  53.6641500  20.6726690
 107.1929940  53.1176100  19.2683110  88.7746260  48.2307360  12.4059200
  88.8526680  48.3656130  11.4614920  89.3887940  47.5223250  12.5987320
  90.0193890  49.9307550   8.8165380  89.6121970  50.0722140   7.9618980
  90.9106900  49.6467710   8.6136590 105.9756030  50.3771460  17.1537620
 106.1019090  50.1383340  16.2354800 106.0177410  49.5456000  17.6259700
  99.8372770  54.0799460  15.7232430 100.3517440  53.9907470  16.5254860
  98.9941850  54.4259160  16.0160340 101.8127170  54.3654800   5.1516430
 101.6528310  54.0757740   6.0498260 101.6473880  53.5894930   4.6161660
  94.2915550  54.1453330   6.9288050  94.1158030  53.2288870   6.7155850
  93.4371290  54.5040620   7.1685850 101.5153300  51.8742360   3.7114430
 100.8218460  51.8719650   3.0516710 102.2576160  51.4501680   3.2808600
 101.0803230  53.5005070   7.7862920 101.5360180  52.7194450   8.1001540
 101.4195750  54.2111890   8.3304100 105.8280040  42.4303920  18.1187360
 105.2124310  42.9383590  17.5902820 105.5076460  41.5302250  18.0613300
  88.8305780  49.2721530  14.9453660  88.9936820  48.8026890  14.1273030
  89.2958230  48.7645090  15.6102500  93.6024550  38.4027290   9.9814230
  93.1592700  39.1836830   9.6498750  94.1609540  38.7257180  10.6885170
  97.8894360  41.2695810  15.5849550  97.4273730  41.4778830  16.3969490
  97.4872470  40.4555160  15.2820220 102.8898870  42.4904760  16.7146210
 102.0392460  42.1910510  17.0355280 102.7300660  42.7346770  15.8030030
  99.9848580  43.9906510  18.8145000 100.3101990  43.1570260  18.4747230
 100.7728910  44.5135030  18.9623330  96.7183370  38.0237990   4.8620060
  96.0937550  38.0197860   5.5873370  96.6313490  37.1568950   4.4656030
  95.6400450  38.9474620  11.8403830  95.9372780  39.8537450  11.7595850
  96.1886010  38.4593400  11.2263400  93.3938770  43.5260860   7.7095480
  93.1679690  43.3098030   8.6142100  92.6131300  43.9589320   7.3641450
 100.6236530  43.5324230   6.3086130 100.0245420  44.2560030   6.1249750
 101.1716140  43.4701010   5.5262580  99.2301400  42.1687770   8.3389410
  99.6230970  42.4859970   7.5258100  99.5918250  41.2899650   8.4533930
  88.2665570  38.7588570  10.5619610  87.9778620  39.3291430  11.2744590
  89.0111330  38.2793020  10.9250840  99.8156540  44.7593520  12.4340190
  99.0837660  45.2680330  12.7830290  99.4180880  43.9423500  12.1328970
  96.2533930  41.4347720  10.8392680  96.2569990  40.9937670   9.9897220
  97.1485050  41.7565050  10.9464500  92.1036310  41.3174210   9.7986890
  91.7636360  41.7949440  10.5553940  91.3413630  40.8639330   9.4387990
  96.3154080  42.4359800   3.8299440  96.4366900  42.3946280   4.7785260
  95.9302590  43.2983950   3.6746170 100.2782450  40.2127200  11.8463130
 100.2955190  40.6635850  12.6904980 100.0298030  39.3132840  12.0596570
  95.3275580  44.7460940   3.2282740  94.7592480  44.2979190   2.6018650
  96.0364580  45.1053720   2.6947890 103.7053200  37.6259380  17.6849510
 104.0298970  36.8949040  18.2107490 103.7409710  37.3073020  16.7830500
  96.5541900  45.4949500  12.5858090  96.9212030  45.0208070  13.3319430
  96.3646960  46.3691070  12.9266430  89.4182390  40.2393190   8.7151560
  89.1329310  39.8748860   9.5530180  89.3561250  39.5073650   8.1014700
  94.3441270  44.5358140  14.9042300  94.0398340  45.4150120  15.1292660
  95.2987730  44.5957930  14.9399740  92.8723060  48.7419130   5.5009150
  92.0985320  48.2016750   5.3407870  93.6017690  48.2225740   5.1626910
 103.6311040  47.7384490  11.2935540 104.3510160  48.2339780  10.9031650
 103.4292860  47.0602380  10.6489410  99.0920980  39.1322450   5.4364930
  98.2785590  38.6335620   5.3610240  98.8982930  39.9720700   5.0201280
  99.0129840  47.8093550  17.1804540  98.9467150  46.8889220  16.9262130
  98.3834980  47.9068990  17.8949180 101.8069370  43.5042100   3.7327090
 102.6948990  43.8159330   3.5578430 101.7774460  42.6314350   3.3407670
  92.9160460  48.4099510   9.1387960  93.4339130  47.6067770   9.0844850
  92.4644480  48.3478650   9.9804790  97.8029960  49.6765790   4.4115260
  98.1445660  50.4208020   3.9158580  96.9742670  49.9896910   4.7740090
  90.4005000  45.3760880  16.0513660  90.0419940  46.0414730  16.6387000
  90.1059560  44.5444430  16.4226280  98.9446570  50.6314120  16.9308340
  98.9591110  49.6995080  16.7127250  98.2371670  50.7173880  17.5698110
 104.0783640  44.8153940   3.2006950 103.9947360  45.2468160   2.3503390
 104.7977830  45.2752290   3.6333770 105.1557780  47.2721460  16.2776920
 104.4305970  47.8650240  16.0806310 105.6833240  47.2645000  15.4790290
 105.1070890  51.6696200   5.9289080 104.4647050  51.0151820   6.2032800
 104.7201550  52.0751290   5.1529750 100.6857370  48.9981630   9.7760770
 101.0381190  48.4009760   9.1162140  99.8019700  48.6725860   9.9469020
  96.7720650  49.7579320   7.1831180  97.4591780  50.3048530   7.5638770
  95.9853070  50.3020050   7.2180790  88.9113050  45.3752140   2.6748260
  89.7807900  45.6576940   2.9584180  88.4203370  46.1888010   2.5597070
  96.0747860  46.7625350   6.7956540  96.5310640  47.5730600   7.0216730
  95.7236070  46.4448490   7.6275030  98.3780470  52.2731690  14.0248840
  99.0222690  52.4791070  14.7022260  98.7409910  51.5120090  13.5719690
  91.9759640  37.1063000   7.2679060  91.8474270  37.0980900   8.2163980
  91.1521660  37.4446090   6.9170070  99.6512550  50.2764040  12.7426290
 100.2934780  49.5757200  12.8558460 100.1761900  51.0562480  12.5623180
 103.4968270  50.5612660   2.4665430 103.2705850  49.8443100   3.0590070
 103.1064470  50.3125100   1.6287180 101.4250170  51.0758940  15.9462350
 101.7606410  51.6625630  16.6240270 100.5050510  50.9451650  16.1760140
  89.2784300  54.5879520   3.2409890  89.6381940  55.1868860   2.5867160
  89.1376640  55.1339410   4.0144920 103.0784520  48.4784600   4.1279590
 102.7906220  48.9397290   4.9157470 103.8736690  48.0182370   4.3963810
  89.2626160  52.8534380  17.7152290  89.3717280  51.9129120  17.5747680
  88.6106720  53.1189130  17.0666020  97.2538750  51.1250270  19.1150410
  96.9335620  50.4059510  19.6596100  96.5797110  51.8005340  19.1886470
  95.2952920  51.9710720   4.0583560  95.2863020  52.7040410   3.4428070
  94.3751280  51.7242300   4.1510520  90.8959560  47.1925610   4.8030320
  90.2887510  47.9324510   4.8125620  91.3708910  47.2824970   3.9768520
 100.4692350  41.3576430  14.4787210 100.8373170  40.5371640  14.8066780
  99.6090550  41.4178320  14.8942860 103.8354380  40.3133370   5.2874770
 103.2067540  40.4179040   4.5733000 103.3406300  40.5330150   6.0768650
  98.2812520  52.0338960   2.7208750  98.3824500  51.8302950   1.7910730
  97.3814260  51.7797240   2.9256530  95.8038410  42.5919320   6.7032650
  95.0954560  43.0605660   7.1446260  96.0882890  41.9341330   7.3377840
  97.4294340  44.0116020  14.7025180  97.9279590  44.4861840  15.3677030
  97.5717290  43.0879540  14.9095210  99.8353840  39.3169980   8.1428440
  99.7121620  39.3356110   7.1937950 100.7838400  39.3648920   8.2626840
  96.9230630  54.5525280   7.4156420  97.1772130  54.5146670   6.4935790
  95.9743110  54.4258610   7.4084670  94.0073430  40.9004400   4.0783360
  94.8563960  41.3374550   4.0123550  93.6404700  41.2124660   4.9055420
 104.6361200  40.2283980  15.5453570 104.1334800  40.9689380  15.8847380
 105.4517860  40.6167980  15.2290360 102.9283210  45.4717160   8.9914930
 101.9873350  45.4867390   9.1662620 103.2427280  44.6853120   9.4375230
  92.9064850  47.1536760   2.5518890  93.6728120  47.0418120   3.1144320
  92.9839540  46.4574730   1.8995660  91.6011610  44.5861830   3.2351780
  91.6815200  43.6389340   3.3469180  92.4931360  44.9168710   3.3412440
 104.9308790  52.6426010  10.6669190 105.0556210  53.4657180  11.1393000
 105.7974350  52.4316740  10.3193340  92.4026320  54.7357220  10.3386320
  93.1388800  54.1872680  10.6094890  92.7867240  55.6013230  10.1992310
  89.2871800  50.8030790   6.2127830  88.3611580  51.0451930   6.2033240
  89.7528230  51.6305050   6.0912580  91.4084600  53.9203290  19.5271900
  92.2097330  54.2415340  19.9407300  90.8936420  53.5598870  20.2491810
  95.5128630  53.9087530   2.1611890  96.3057240  54.1976360   1.7093680
  94.9932980  53.4779700   1.4824370 100.2449230  50.0283160  19.4747310
  99.6387390  50.0514760  18.7343060  99.9403340  49.2966200  20.0114560
 101.6749600  53.7563450  18.0856720 102.6271350  53.6721470  18.0356960
 101.5277820  54.4205160  18.7590510 104.5658800  53.1357660   3.5848630
 104.2800310  52.7222800   2.7702810 104.3678350  54.0645370   3.4649150
  96.1820350  47.8147740  18.0043470  95.4166020  48.3832740  17.9198140
  96.3636310  47.5223950  17.1111700  99.2708760  48.1910970   2.6296230
  98.7218860  48.6380270   3.2738970  99.8928020  47.6860220   3.1533900
 103.3243700  49.5453070  18.5618490 104.0653170  49.8828830  18.0585950
 102.5616380  49.7145130  18.0088260  94.9383880  47.1501890   4.5261530
  95.3600300  46.9841760   5.3692920  95.0634720  46.3402120   4.0316670
 101.9989360  47.5967900  17.0973700 102.4130380  47.7512980  17.9464120
 101.0640360  47.7223120  17.2599480 102.4711530  44.9364060  19.1012850
 103.0532300  44.1816380  19.0133330 102.6473300  45.4671500  18.3244330
  96.3545040  38.6534050  14.4457190  95.9062340  38.6758310  13.6002740
  95.7210240  38.2553070  15.0427490  96.7604590  47.5488380  15.0669630
  97.1792700  48.3921110  14.8945870  95.8413220  47.6860420  14.8376410
  99.0968490  45.2804560  16.4507470  99.2164700  44.6845700  17.1902310
  99.9562490  45.3174250  16.0308770 101.4356390  45.8341750  15.0269980
 100.9091610  46.3584370  14.4235120 101.7787730  46.4669140  15.6579710
  94.6112010  53.8541390  16.1827360  94.0733100  54.5787450  15.8636060
  94.8645970  53.3771730  15.3924700 100.6830690  41.4391720  17.9416310
  99.9946210  40.7773260  17.8766300 101.4036710  40.9929990  18.3864770
 101.3131090  38.0343350   4.0006570 101.5933380  37.1911250   4.3565990
 100.5396820  38.2666460   4.5145320  97.4674220  55.0892600  16.4414010
  97.3932920  55.9927740  16.7486380  96.5653060  54.7704500  16.4136080
  95.8510510  39.2670360   2.4453770  95.5032510  38.5894350   1.8656220
  96.0523280  38.8059870   3.2597160  98.0159550  54.2551110   4.0640370
  98.9110340  54.5936080   4.0859130  98.0477180  53.5330520   3.4364650
  91.6555710  49.6278160   2.2927370  92.0930580  50.1707830   2.9484950
  92.1403440  48.8025110   2.3023710  88.8701510  52.4167190   9.7447630
  89.2004520  51.5488250   9.5126270  89.2992510  52.6225710  10.5752590
  93.4663430  50.7476200   7.4049600  93.1658970  50.6241170   8.3053510
  93.3600920  49.8884790   6.9965330  89.3591720  53.2837780  12.4829260
  88.9222710  53.4638580  13.3153410  89.9269400  54.0412400  12.3410980
 104.9953900  52.7854780  16.7706570 104.3955890  52.8447340  16.0270490
 105.1247800  51.8459760  16.9003420 106.2355350  50.5272600   2.1076280
 105.4048310  50.5949250   2.5783510 106.4127180  51.4176720   1.8043140
 105.6911810  47.2720080   4.6110480 106.4530720  47.8416730   4.7170170
 105.7066180  46.7047280   5.3818790  89.1916150  45.7958010   8.8418140
  88.5364990  45.5269650   8.1977840  90.0294100  45.6862490   8.3920120
 106.6971780  48.1270180   9.4552410 107.0680610  47.3437500   9.0488380
 107.3373710  48.8159280   9.2769710 103.6805540  49.5106760  14.8682730
 102.8665380  49.9403920  15.1308520 104.0879740  50.1225170  14.2551780
 105.7430980  47.5654450   1.7683000 106.0179820  48.4733330   1.6402220
 105.5541720  47.5016980   2.7044990 102.1406590  40.5899300   3.0636630
 102.5591470  40.4030280   2.2233290 101.8342650  39.7378350   3.3739560
 105.6396320  45.5023440   6.7612430 105.2639920  44.7351370   6.3293720
 104.9099440  45.8846140   7.2487360  90.2292080  46.1810580  13.3821480
  90.5965120  46.0937980  14.2617500  89.6602900  45.4177130  13.2828340
 105.0295940  44.6494960  16.3951950 104.7982030  44.4207710  15.4949900
 105.2900490  45.5694510  16.3496840 103.4684010  39.8751390  19.1731650
 104.3454190  39.8834790  19.5565650 103.4804850  39.1382230  18.5624000
  88.4054230  43.0056940   4.7843470  87.5018310  43.2687140   4.6095130
  88.8894850  43.2768110   4.0043430 104.9147280  43.7280930  10.0619670
 105.4384760  43.2343580   9.4309840 105.5006700  43.8631290  10.8067240
 105.0937000  43.8120800  13.5839220 104.1439710  43.7784340  13.6984210
 105.2750010  44.7220910  13.3488990  90.9481440  42.0622480   2.6937850
  91.6573140  41.6405700   2.2085130  90.2321380  42.1297710   2.0621200
 104.4047250  42.9854280   6.0012080 104.9006370  42.7525150   6.7860960
 104.2063320  42.1466120   5.5849720  90.2847790  37.3668000  11.6363120
  90.9323980  36.8165380  11.1958280  90.7049630  37.6211150  12.4578930
 105.8334410  41.6215230   8.5349760 105.7233690  41.4671270   9.4732030
 106.5942000  41.0936170   8.2925170 104.1800130  37.5609360  14.9932760
 104.8172350  38.1743500  15.3591950 104.3275020  37.5970020  14.0481990
 106.7224680  39.4523150   1.7755900 107.6473990  39.3204330   1.5674190
 106.7000470  39.5315970   2.7292350 106.7963170  40.2233810   4.4012610
 106.0014670  40.1578930   4.9305520 107.0006450  41.1584450   4.3897960
 103.7381590  54.2625360   8.3951000 104.3340660  53.9409930   7.7185420
 103.9959740  53.7897180   9.1864270  95.3450190  52.2502860  14.1451350
  95.1041550  52.5177420  13.2581870  96.2852830  52.4208590  14.2002210
  97.5504610  38.7135550  17.9007860  97.4893500  39.3057380  18.6503270
  98.4904990  38.6061510  17.7558120 100.1879170  38.3705610  17.5400150
 100.8019580  38.6884900  16.8781230 100.7328730  37.8854200  18.1596010
 106.6054350  54.2697240  14.9461990 106.1112630  54.6666110  14.2289120
 105.9967640  53.6446450  15.3399270  91.4832190  53.6405520  15.6639410
  90.8892510  53.5090220  16.4029450  91.4756030  52.8043660  15.1981510
 100.9287210  36.9337750  13.8669440 100.0547050  37.2672860  13.6642370
 100.8197960  36.4610930  14.6921310 101.8359190  39.1408620  15.2511160
 101.5072550  38.3260380  14.8712890 102.7841490  39.0978430  15.1276850
 104.2893800  54.9120660  12.2248730 103.8296770  55.6636470  11.8506750
 103.6606260  54.1927130  12.1663530  91.1144420  51.0063900  14.6147450
  90.3878480  50.3869190  14.5473400  91.1753570  51.4004510  13.7445530
  94.7189520  53.2208900  11.3996860  95.2354540  52.6096260  10.8745120
  95.3686900  53.7237680  11.8907870  97.4585020  54.1117390  12.2265840
  97.7462830  53.8571690  11.3498850  97.9708240  53.5594750  12.8171410
  98.6762030  37.8507590  12.8062350  97.8933820  38.3253090  13.0859110
  98.3824960  36.9462420  12.6975530 103.2283100  38.5530690  10.8511440
 103.6691190  38.4975790  10.0033040 102.9590690  39.4688700  10.9221620
 105.0921670  38.1845930   8.8620260 105.0310070  37.2407150   8.7151280
 105.8713700  38.2926020   9.4073720  89.3974420  54.3238290   7.8244210
  89.2296460  53.6908970   8.5226100  88.5308930  54.5297690   7.4738400
  90.0202440  38.1555070   5.3276070  90.7781800  38.2683950   4.7540100
  89.5579610  38.9924270   5.2819500  96.5616250  40.2694340   8.3178380
  95.7490760  39.8951230   7.9774260  97.0657890  39.5139420   8.6199570
 101.0641230  36.9336790   9.5561450 101.6670600  37.5057000  10.0309970
 100.3234220  37.4976230   9.3335350 104.2075830  37.3358350   4.8301730
 104.4026460  38.2341800   5.0969160 103.4205700  37.1045430   5.3234680
  91.0037120  53.0171520   5.2694350  90.4784740  53.3979550   4.5656310
  90.9281700  53.6422290   5.9904060  92.3927590  38.6819120   3.8678040
  92.9220350  37.8948920   3.7385990  93.0255910  39.3610310   4.1013570
  94.5865430  38.4194260   6.9223430  93.9568170  37.7181570   7.0893560
  94.0470570  39.1798390   6.7056590  97.5257380  55.0333490  19.5934040
  98.4524690  54.7977760  19.6370000  97.5107810  55.8605490  19.1120070
 105.7602440  54.5759060   6.5908290 105.9354630  53.8896800   5.9469210
 105.0624010  55.1006110   6.1984960  93.6030090  54.9653900   4.1443600
  94.3348910  54.6813180   3.5967490  93.8623760  54.7267180   5.0342980
  92.7644880  51.0818630   4.1489930  92.1353760  51.5503730   4.6975760
  92.8792710  50.2367850   4.5836120 101.3136450  37.1131820  19.9356390
 101.2001900  37.4326430  20.8307910 102.1306190  37.5144330  19.6393670
 104.0934940  54.2603350  19.4175080 104.8860260  53.7652580  19.2101040
 104.3868090  54.9393490  20.0250690 100.2194600  26.3580800  65.3965090
 100.1388650  25.4435410  65.1256800  99.8059020  26.8547870  64.6904800
  98.3512640  28.1359820  67.2774360  97.5754740  27.6560260  67.5672930
  99.0025570  27.4565470  67.1030520  92.3678470  28.4479630  68.1550120
  91.5363350  28.1928340  68.5546630  92.9759450  28.5190400  68.8908040
 102.3720070  32.5420010  66.0573490 101.9101600  31.7707250  66.3860660
 103.1845620  32.5686080  66.5625940  92.3479730  32.4819720  68.3508140
  92.6507770  31.5917460  68.1718360  93.0923320  33.0389940  68.1230390
  90.7770420  23.4081520  61.9392510  89.8887120  23.7497490  61.8372390
  91.0611610  23.2081840  61.0473340  88.7403430  26.0087170  67.8232210
  89.3119540  25.2409370  67.8235850  88.7404970  26.3075930  66.9138820
  98.5983380  34.8278020  65.6777480  97.9794820  35.2835520  65.1071920
  99.4535160  34.9829480  65.2767180  97.7921630  30.8117010  67.2844520
  97.7229910  29.8706950  67.1233650  98.5541490  30.9018420  67.8567090
  89.9828300  21.4171530  69.6101140  89.8031140  20.5197280  69.8903900
  89.5808380  21.9643400  70.2848090  98.8226800  23.6187390  67.5113450
  99.1991620  22.7459270  67.3987120  98.7246310  23.9546090  66.6203890
  92.9531810  21.9913020  62.9730890  93.0598560  22.8916750  63.2799650
  92.0424170  21.9430990  62.6825540 102.6050920  21.1137830  64.4441790
 103.4260540  20.6234400  64.4867270 102.6385000  21.7035490  65.1973630
  90.6014970  23.9132030  68.2183480  91.2825080  24.1770400  68.8370880
  90.2863020  23.0732900  68.5521490  94.7939540  24.9599390  67.3056070
  95.3017760  25.4580360  67.9461090  95.3252780  24.1834590  67.1295430
 106.8950470  23.1304580  71.0085420 106.1902640  23.5186290  70.4900530
 107.1608390  23.8254870  71.6106350  93.0775640  19.5997950  71.5719490
  93.0794080  20.1170340  70.7665390  92.2479950  19.1228130  71.5489420
  99.4646730  29.7117260  63.0709390  98.8464000  30.1766710  62.5072110
  99.9769980  30.4044740  63.4878900  94.3278490  29.2393130  69.7492990
  93.9947870  29.8662050  70.3914060  94.5045170  29.7655010  68.9694660
 102.8412400  23.0538210  67.2169330 102.1367970  23.3423100  67.7972440
 103.2024560  23.8638320  66.8568890  92.7590970  21.3107910  69.5789940
  93.1007780  22.1549960  69.2843810  91.8206780  21.4591650  69.6955280
  93.5397590  31.2073930  71.5642170  94.1571590  31.8825010  71.2826620
  92.6790710  31.6161910  71.4729670  88.8329930  30.3973790  60.4449020
  88.4557910  30.8860890  59.7133920  89.0903000  31.0699070  61.0755550
 104.4575180  32.6713340  69.4796810 103.7738700  33.3412450  69.4713480
 104.9969470  32.8693990  68.7141670 105.9099320  22.4993000  67.6078540
 104.9624230  22.5331980  67.7393970 106.2349310  23.3131950  67.9927900
  96.4418860  18.7990180  65.9034530  96.7493840  18.2437070  65.1870030
  95.5119560  18.9334640  65.7207520 101.9933920  34.5157470  68.1941990
 102.0061080  34.1119760  67.3264250 101.4409140  35.2904760  68.0903420
 103.2879340  31.2373690  63.2832160 103.1775670  30.2948020  63.4081580
 103.2847590  31.5989330  64.1694920 101.3919360  29.4187310  69.5224600
 101.8088150  29.2047420  68.6878060 102.1159180  29.6760100  70.0933220
  98.8299620  26.8639010  62.6394650  97.9028900  26.7976390  62.8683120
  98.9824440  27.8019140  62.5249890  98.8168700  23.1356010  59.6361810
  97.8772370  23.2969970  59.7214270  99.1351960  23.8541690  59.0897800
 105.3381460  27.8174530  69.6140840 104.5100090  27.8867620  69.1390970
 105.9331940  28.4028840  69.1456670 102.8596910  28.4259310  63.1429900
 102.2409330  28.0878860  62.4956200 102.8421360  27.7819070  63.8509090
 102.3023470  24.6043850  70.5595710 101.8894650  25.4297560  70.8135700
 101.5699420  24.0188890  70.3672070  94.4356260  27.3903750  65.4214380
  94.0313260  26.6781000  64.9260280  94.5219380  27.0456990  66.3102420
  94.9037960  31.0771310  67.5853590  94.6066250  30.4716780  66.9061370
  95.8537780  31.1148620  67.4742950  93.1484880  24.1646960  69.2013420
  93.6999470  24.2742300  68.4266670  93.6628390  24.5384560  69.9168650
 102.9923570  34.6503180  71.2476690 102.5154130  35.4575370  71.0549300
 102.3085360  33.9981510  71.4002900  93.9956390  30.8153000  74.2361390
  93.0984920  31.0392970  74.4834790  94.0209260  30.9387940  73.2872790
 101.0361610  27.6646120  60.1502650 101.4754890  26.8268550  60.0040470
 101.7490030  28.2975520  60.2366790  92.8227610  27.6866320  72.8118760
  92.6835380  28.5589120  73.1806160  91.9408970  27.3439130  72.6666700
  99.1456990  32.6042190  64.1183890  99.5852900  33.3466520  63.7039280
  99.0843880  32.8468760  65.0422850  94.6207960  33.6288020  75.0203910
  94.5923390  34.0330970  74.1532340  94.4572930  32.6998380  74.8575510
 104.6178750  18.9188930  58.4643690 104.3051410  19.0115760  59.3642760
 105.3791220  19.4969960  58.4141120  91.1360890  26.2848730  62.9221030
  91.0158490  27.0110820  62.3102300  90.8261780  25.5151640  62.4448940
  88.7746260  29.4563870  68.7289670  88.8526680  29.5912640  67.7845390
  89.3887940  28.7479760  68.9217790  90.0193890  31.1564060  65.1395850
  89.6121970  31.2978650  64.2849450  90.9106900  30.8724220  64.9367060
 105.9756030  31.6027970  73.4768090 106.1019090  31.3639850  72.5585270
 106.0177410  30.7712510  73.9490170  99.8372770  35.3055970  72.0462900
 100.3517440  35.2163980  72.8485330  98.9941850  35.6515670  72.3390810
 101.8127170  35.5911310  61.4746900 101.6528310  35.3014250  62.3728730
 101.6473880  34.8151440  60.9392130  94.2915550  35.3709840  63.2518520
  94.1158030  34.4545380  63.0386320  93.4371290  35.7297130  63.4916320
 101.5153300  33.0998870  60.0344900 100.8218460  33.0976160  59.3747180
 102.2576160  32.6758190  59.6039070 101.0803230  34.7261580  64.1093390
 101.5360180  33.9450960  64.4232010 101.4195750  35.4368400  64.6534570
 105.8280040  23.6560430  74.4417830 105.2124310  24.1640100  73.9133290
 105.5076460  22.7558760  74.3843770  88.8305780  30.4978040  71.2684130
  88.9936820  30.0283400  70.4503500  89.2958230  29.9901600  71.9332970
  93.6024550  19.6283800  66.3044700  93.1592700  20.4093340  65.9729220
  94.1609540  19.9513690  67.0115640  97.8894360  22.4952320  71.9080020
  97.4273730  22.7035340  72.7199960  97.4872470  21.6811670  71.6050690
 102.8898870  23.7161270  73.0376680 102.0392460  23.4167020  73.3585750
 102.7300660  23.9603280  72.1260500  99.9848580  25.2163020  75.1375470
 100.3101990  24.3826770  74.7977700 100.7728910  25.7391540  75.2853800
  96.7183370  19.2494500  61.1850530  96.0937550  19.2454370  61.9103840
  96.6313490  18.3825460  60.7886500  95.6400450  20.1731130  68.1634300
  95.9372780  21.0793960  68.0826320  96.1886010  19.6849910  67.5493870
  93.3938770  24.7517370  64.0325950  93.1679690  24.5354540  64.9372570
  92.6131300  25.1845830  63.6871920 100.6236530  24.7580740  62.6316600
 100.0245420  25.4816540  62.4480220 101.1716140  24.6957520  61.8493050
  95.8337980  25.6502950  74.6986220  95.7381580  24.7097680  74.5486620
  96.6769960  25.8718020  74.3034290  99.2301400  23.3944280  64.6619880
  99.6230970  23.7116480  63.8488570  99.5918250  22.5156160  64.7764400
  90.9648520  22.0616620  72.8520000  90.5711910  22.9091830  73.0592780
  90.2766920  21.4242990  73.0428640  88.2665570  19.9845080  66.8850080
  87.9778620  20.5547940  67.5975060  89.0111330  19.5049530  67.2481310
  88.4535800  23.9265200  58.0952800  88.3710470  24.8695960  58.2367790
  88.1018860  23.7840110  57.2165150  99.8156540  25.9850030  68.7570660
  99.0837660  26.4936840  69.1060760  99.4180880  25.1680010  68.4559440
  96.2533930  22.6604230  67.1623150  96.2569990  22.2194180  66.3127690
  97.1485050  22.9821560  67.2694970  92.1036310  22.5430720  66.1217360
  91.7636360  23.0205950  66.8784410  91.3413630  22.0895840  65.7618460
  96.3154080  23.6616310  60.1529910  96.4366900  23.6202790  61.1015730
  95.9302590  24.5240460  59.9976640 100.2782450  21.4383710  68.1693600
 100.2955190  21.8892360  69.0135450 100.0298030  20.5389350  68.3827040
  95.3275580  25.9717450  59.5513210  94.7592480  25.5235700  58.9249120
  96.0364580  26.3310230  59.0178360 103.7053200  18.8515890  74.0079980
 104.0298970  18.1205550  74.5337960 103.7409710  18.5329530  73.1060970
  90.4044760  29.8729470  73.4279940  90.0199550  29.2323140  74.0262900
  90.7156950  30.5765590  73.9974670  96.5541900  26.7206010  68.9088560
  96.9212030  26.2464580  69.6549900  96.3646960  27.5947580  69.2496900
  89.4182390  21.4649700  65.0382030  89.1329310  21.1005370  65.8760650
  89.3561250  20.7330160  64.4245170  94.3441270  25.7614650  71.2272770
  94.0398340  26.6406630  71.4523130  95.2987730  25.8214440  71.2630210
  92.8723060  29.9675640  61.8239620  92.0985320  29.4273260  61.6638340
  93.6017690  29.4482250  61.4857380 103.6311040  28.9641000  67.6166010
 104.3510160  29.4596290  67.2262120 103.4292860  28.2858890  66.9719880
  99.0920980  20.3578960  61.7595400  98.2785590  19.8592130  61.6840710
  98.8982930  21.1977210  61.3431750  99.0129840  29.0350060  73.5035010
  98.9467150  28.1145730  73.2492600  98.3834980  29.1325500  74.2179650
 101.8069370  24.7298610  60.0557560 102.6948990  25.0415840  59.8808900
 101.7774460  23.8570860  59.6638140  92.9160460  29.6356020  65.4618430
  93.4339130  28.8324280  65.4075320  92.4644480  29.5735160  66.3035260
  97.8029960  30.9022300  60.7345730  98.1445660  31.6464530  60.2389050
  96.9742670  31.2153420  61.0970560  90.4005000  26.6017390  72.3744130
  90.0419940  27.2671240  72.9617470  90.1059560  25.7700940  72.7456750
  93.6018120  27.0601630  75.2583680  93.3018260  27.2058810  74.3611500
  94.3729360  26.5006920  75.1657070  98.9446570  31.8570630  73.2538810
  98.9591110  30.9251590  73.0357720  98.2371670  31.9430390  73.8928580
 104.0783640  26.0410450  59.5237420 103.9947360  26.4724670  58.6733860
 104.7977830  26.5008800  59.9564240 105.1557780  28.4977970  72.6007390
 104.4305970  29.0906750  72.4036780 105.6833240  28.4901510  71.8020760
 105.1070890  32.8952710  62.2519550 104.4647050  32.2408330  62.5263270
 104.7201550  33.3007800  61.4760220 100.6857370  30.2238140  66.0991240
 101.0381190  29.6266270  65.4392610  99.8019700  29.8982370  66.2699490
  96.7720650  30.9835830  63.5061650  97.4591780  31.5305040  63.8869240
  95.9853070  31.5276560  63.5411260  88.9113050  26.6008650  58.9978730
  89.7807900  26.8833450  59.2814650  88.4203370  27.4144520  58.8827540
  96.0747860  27.9881860  63.1187010  96.5310640  28.7987110  63.3447200
  95.7236070  27.6705000  63.9505500  98.3780470  33.4988200  70.3479310
  99.0222690  33.7047580  71.0252730  98.7409910  32.7376600  69.8950160
  91.9759640  18.3319510  63.5909530  91.8474270  18.3237410  64.5394450
  91.1521660  18.6702600  63.2400540  99.6512550  31.5020550  69.0656760
 100.2934780  30.8013710  69.1788930 100.1761900  32.2818990  68.8853650
 103.4968270  31.7869170  58.7895900 103.2705850  31.0699610  59.3820540
 103.1064470  31.5381610  57.9517650 101.4250170  32.3015450  72.2692820
 101.7606410  32.8882140  72.9470740 100.5050510  32.1708160  72.4990610
  89.2784300  35.8136030  59.5640360  89.6381940  36.4125370  58.9097630
  89.1376640  36.3595920  60.3375390  88.9753570  20.0910630  73.0516230
  88.2612090  20.2907550  73.6568840  89.3948610  19.3150200  73.4231030
 103.0784520  29.7041110  60.4510060 102.7906220  30.1653800  61.2387940
 103.8736690  29.2438880  60.7194280  89.2626160  34.0790890  74.0382760
  89.3717280  33.1385630  73.8978150  88.6106720  34.3445640  73.3896490
  97.2538750  32.3506780  75.4380880  96.9335620  31.6316020  75.9826570
  96.5797110  33.0261850  75.5116940  95.2952920  33.1967230  60.3814030
  95.2863020  33.9296920  59.7658540  94.3751280  32.9498810  60.4740990
  90.8959560  28.4182120  61.1260790  90.2887510  29.1581020  61.1356090
  91.3708910  28.5081480  60.2998990 100.4692350  22.5832940  70.8017680
 100.8373170  21.7628150  71.1297250  99.6090550  22.6434830  71.2173330
 103.8354380  21.5389880  61.6105240 103.2067540  21.6435550  60.8963470
 103.3406300  21.7586660  62.3999120  98.2812520  33.2595470  59.0439220
  98.3824500  33.0559460  58.1141200  97.3814260  33.0053750  59.2487000
  95.8038410  23.8175830  63.0263120  95.0954560  24.2862170  63.4676730
  96.0882890  23.1597840  63.6608310  97.4294340  25.2372530  71.0255650
  97.9279590  25.7118350  71.6907500  97.5717290  24.3136050  71.2325680
  99.8353840  20.5426490  64.4658910  99.7121620  20.5612620  63.5168420
 100.7838400  20.5905430  64.5857310  96.9230630  35.7781790  63.7386890
  97.1772130  35.7403180  62.8166260  95.9743110  35.6515120  63.7315140
  94.0073430  22.1260910  60.4013830  94.8563960  22.5631060  60.3354020
  93.6404700  22.4381170  61.2285890 104.6361200  21.4540490  71.8684040
 104.1334800  22.1945890  72.2077850 105.4517860  21.8424490  71.5520830
 102.9283210  26.6973670  65.3145400 101.9873350  26.7123900  65.4893090
 103.2427280  25.9109630  65.7605700  92.9064850  28.3793270  58.8749360
  93.6728120  28.2674630  59.4374790  92.9839540  27.6831240  58.2226130
  91.6011610  25.8118340  59.5582250  91.6815200  24.8645850  59.6699650
  92.4931360  26.1425220  59.6642910 104.9308790  33.8682520  66.9899660
 105.0556210  34.6913690  67.4623470 105.7974350  33.6573250  66.6423810
  92.4026320  35.9613730  66.6616790  93.1388800  35.4129190  66.9325360
  92.7867240  36.8269740  66.5222780  89.2871800  32.0287300  62.5358300
  88.3611580  32.2708440  62.5263710  89.7528230  32.8561560  62.4143050
  95.5128630  35.1344040  58.4842360  96.3057240  35.4232870  58.0324150
  94.9932980  34.7036210  57.8054840 101.6749600  34.9819960  74.4087190
 102.6271350  34.8977980  74.3587430 101.5277820  35.6461670  75.0820980
 104.5658800  34.3614170  59.9079100 104.2800310  33.9479310  59.0933280
 104.3678350  35.2901880  59.7879620  89.1282410  27.6333260  74.7938420
  89.6321430  27.0540540  75.3654650  88.3889830  27.9173490  75.3314790
  96.0306030  30.3547450  58.3484710  95.9256670  29.7399800  59.0746090
  95.8630250  29.8313340  57.5647720  96.1820350  29.0404250  74.3273940
  95.4166020  29.6089250  74.2428610  96.3636310  28.7480460  73.4342170
  99.2708760  29.4167480  58.9526700  98.7218860  29.8636780  59.5969440
  99.8928020  28.9116730  59.4764370 103.3243700  30.7709580  74.8848960
 104.0653170  31.1085340  74.3816420 102.5616380  30.9401640  74.3318730
  94.9383880  28.3758400  60.8492000  95.3600300  28.2098270  61.6923390
  95.0634720  27.5658630  60.3547140  93.1011300  24.3554950  73.6562980
  92.5707760  23.8645900  73.0286320  93.7699370  24.7839150  73.1220910
  97.4511520  27.3996010  58.0969100  97.9717180  26.6845030  57.7310250
  98.0979920  28.0381880  58.3969610 101.9989360  28.8224410  73.4204170
 102.4130380  28.9769490  74.2694590 101.0640360  28.9479630  73.5829950
 102.4711530  26.1620570  75.4243320 103.0532300  25.4072890  75.3363800
 102.6473300  26.6928010  74.6474800  93.5883600  21.3217320  73.7360270
  93.4940470  20.7038070  73.0111140  93.0080990  22.0483610  73.5090180
  96.3545040  19.8790560  70.7687660  95.9062340  19.9014820  69.9233210
  95.7210240  19.4809580  71.3657960  96.7604590  28.7744890  71.3900100
  97.1792700  29.6177620  71.2176340  95.8413220  28.9116930  71.1606880
  99.0968490  26.5061070  72.7737940  99.2164700  25.9102210  73.5132780
  99.9562490  26.5430760  72.3539240 101.4356390  27.0598260  71.3500450
 100.9091610  27.5840880  70.7465590 101.7787730  27.6925650  71.9810180
  93.8342780  24.4491630  57.7950160  93.6331840  23.5858990  58.1563500
  93.6634830  24.3624990  56.8571760  94.6112010  35.0797900  72.5057830
  94.0733100  35.8043960  72.1866530  94.8645970  34.6028240  71.7155170
  95.8637260  23.0482420  74.0313760  96.4536950  22.7398270  74.7191580
  95.0457500  22.5762170  74.1873660 100.6830690  22.6648230  74.2646780
  99.9946210  22.0029770  74.1996770 101.4036710  22.2186500  74.7095240
 101.3131090  19.2599860  60.3237040 101.5933380  18.4167760  60.6796460
 100.5396820  19.4922970  60.8375790  92.6325580  21.5492250  57.7828040
  92.9351480  21.5559680  56.8747190  93.3720170  21.1990110  58.2795700
  97.4674220  36.3149110  72.7644480  97.3932920  37.2184250  73.0716850
  96.5653060  35.9961010  72.7366550  95.8510510  20.4926870  58.7684240
  95.5032510  19.8150860  58.1886690  96.0523280  20.0316380  59.5827630
  98.0159550  35.4807620  60.3870840  98.9110340  35.8192590  60.4089600
  98.0477180  34.7587030  59.7595120  91.6555710  30.8534670  58.6157840
  92.0930580  31.3964340  59.2715420  92.1403440  30.0281620  58.6254180
  88.8701510  33.6423700  66.0678100  89.2004520  32.7744760  65.8356740
  89.2992510  33.8482220  66.8983060  93.4663430  31.9732710  63.7280070
  93.1658970  31.8497680  64.6283980  93.3600920  31.1141300  63.3195800
  89.3591720  34.5094290  68.8059730  88.9222710  34.6895090  69.6383880
  89.9269400  35.2668910  68.6641450 104.9953900  34.0111290  73.0937040
 104.3955890  34.0703850  72.3500960 105.1247800  33.0716270  73.2233890
 106.2355350  31.7529110  58.4306750 105.4048310  31.8205760  58.9013980
 106.4127180  32.6433230  58.1273610 105.6911810  28.4976590  60.9340950
 106.4530720  29.0673240  61.0400640 105.7066180  27.9303790  61.7049260
  89.1916150  27.0214520  65.1648610  88.5364990  26.7526160  64.5208310
  90.0294100  26.9119000  64.7150590 106.6971780  29.3526690  65.7782880
 107.0680610  28.5694010  65.3718850 107.3373710  30.0415790  65.6000180
 103.6805540  30.7363270  71.1913200 102.8665380  31.1660430  71.4538990
 104.0879740  31.3481680  70.5782250 105.7430980  28.7910960  58.0913470
 106.0179820  29.6989840  57.9632690 105.5541720  28.7273490  59.0275460
 102.1406590  21.8155810  59.3867100 102.5591470  21.6286790  58.5463760
 101.8342650  20.9634860  59.6970030 105.6396320  26.7279950  63.0842900
 105.2639920  25.9607880  62.6524190 104.9099440  27.1102650  63.5717830
  90.2292080  27.4067090  69.7051950  90.5965120  27.3194490  70.5847970
  89.6602900  26.6433640  69.6058810 105.0295940  25.8751470  72.7182420
 104.7982030  25.6464220  71.8180370 105.2900490  26.7951020  72.6727310
  89.7808080  24.3176180  73.6110370  88.8864130  24.2842940  73.9504080
  90.3205630  24.5162970  74.3761620 103.4684010  21.1007900  75.4962120
 104.3454190  21.1091300  75.8796120 103.4804850  20.3638740  74.8854470
  88.4054230  24.2313450  61.1073940  87.5018310  24.4943650  60.9325600
  88.8894850  24.5024620  60.3273900 104.9147280  24.9537440  66.3850140
 105.4384760  24.4600090  65.7540310 105.5006700  25.0887800  67.1297710
 105.0937000  25.0377310  69.9069690 104.1439710  25.0040850  70.0214680
 105.2750010  25.9477420  69.6719460  90.9481440  23.2878990  59.0168320
  91.6573140  22.8662210  58.5315600  90.2321380  23.3554220  58.3851670
  90.5955600  19.3418320  58.0570970  91.3183730  19.8827260  58.3752190
  90.8680120  19.0681740  57.1812510 104.4047250  24.2110790  62.3242550
 104.9006370  23.9781660  63.1091430 104.2063320  23.3722630  61.9080190
  90.2847790  18.5924510  67.9593590  90.9323980  18.0421890  67.5188750
  90.7049630  18.8467660  68.7809400 105.8334410  22.8471740  64.8580230
 105.7233690  22.6927780  65.7962500 106.5942000  22.3192680  64.6155640
 104.1800130  18.7865870  71.3163230 104.8172350  19.4000010  71.6822420
 104.3275020  18.8226530  70.3712460 106.7224680  20.6779660  58.0986370
 107.6473990  20.5460840  57.8904660 106.7000470  20.7572480  59.0522820
 106.7963170  21.4490320  60.7243080 106.0014670  21.3835440  61.2535990
 107.0006450  22.3840960  60.7128430 103.7381590  35.4881870  64.7181470
 104.3340660  35.1666440  64.0415890 103.9959740  35.0153690  65.5094740
  90.0379790  18.7480180  70.7018910  89.6894610  19.2044000  71.4677090
  89.7067490  17.8537310  70.7841340  91.6444160  31.9199780  74.8672100
  91.6013790  31.5492690  75.7486560  91.7755170  32.8577350  75.0073920
  95.3450190  33.4759370  70.4681820  95.1041550  33.7433930  69.5812340
  96.2852830  33.6465100  70.5232680  97.5504610  19.9392060  74.2238330
  97.4893500  20.5313890  74.9733740  98.4904990  19.8318020  74.0788590
 100.1879170  19.5962120  73.8630620 100.8019580  19.9141410  73.2011700
 100.7328730  19.1110710  74.4826480 106.6054350  35.4953750  71.2692460
 106.1112630  35.8922620  70.5519590 105.9967640  34.8702960  71.6629740
  90.7100430  18.2756380  73.9769680  91.2583420  18.0944430  73.2135790
  90.7755740  17.4850490  74.5125990  91.4832190  34.8662030  71.9869880
  90.8892510  34.7346730  72.7259920  91.4756030  34.0300170  71.5211980
 100.9287210  18.1594260  70.1899910 100.0547050  18.4929370  69.9872840
 100.8197960  17.6867440  71.0151780 101.8359190  20.3665130  71.5741630
 101.5072550  19.5516890  71.1943360 102.7841490  20.3234940  71.4507320
 104.2893800  36.1377170  68.5479200 103.8296770  36.8892980  68.1737220
 103.6606260  35.4183640  68.4894000  91.1144420  32.2320410  70.9377920
  90.3878480  31.6125700  70.8703870  91.1753570  32.6261020  70.0676000
  94.7189520  34.4465410  67.7227330  95.2354540  33.8352770  67.1975590
  95.3686900  34.9494190  68.2138340  97.4585020  35.3373900  68.5496310
  97.7462830  35.0828200  67.6729320  97.9708240  34.7851260  69.1401880
  98.6762030  19.0764100  69.1292820  97.8933820  19.5509600  69.4089580
  98.3824960  18.1718930  69.0206000 103.2283100  19.7787200  67.1741910
 103.6691190  19.7232300  66.3263510 102.9590690  20.6945210  67.2452090
 105.0921670  19.4102440  65.1850730 105.0310070  18.4663660  65.0381750
 105.8713700  19.5182530  65.7304190  89.3974420  35.5494800  64.1474680
  89.2296460  34.9165480  64.8456570  88.5308930  35.7554200  63.7968870
  90.0202440  19.3811580  61.6506540  90.7781800  19.4940460  61.0770570
  89.5579610  20.2180780  61.6049970  96.5616250  21.4950850  64.6408850
  95.7490760  21.1207740  64.3004730  97.0657890  20.7395930  64.9430040
 101.0641230  18.1593300  65.8791920 101.6670600  18.7313510  66.3540440
 100.3234220  18.7232740  65.6565820 104.2075830  18.5614860  61.1532200
 104.4026460  19.4598310  61.4199630 103.4205700  18.3301940  61.6465150
  91.0037120  34.2428030  61.5924820  90.4784740  34.6236060  60.8886780
  90.9281700  34.8678800  62.3134530  92.3927590  19.9075630  60.1908510
  92.9220350  19.1205430  60.0616460  93.0255910  20.5866820  60.4244040
  94.5865430  19.6450770  63.2453900  93.9568170  18.9438080  63.4124030
  94.0470570  20.4054900  63.0287060  97.5257380  36.2590000  75.9164510
  98.4524690  36.0234270  75.9600470  97.5107810  37.0862000  75.4350540
 105.7602440  35.8015570  62.9138760 105.9354630  35.1153310  62.2699680
 105.0624010  36.3262620  62.5215430  94.7120990  18.9234750  75.6806390
  94.4305260  19.4268350  74.9167210  95.0940690  18.1256500  75.3148520
  93.6030090  36.1910410  60.4674070  94.3348910  35.9069690  59.9197960
  93.8623760  35.9523690  61.3573450  92.7644880  32.3075140  60.4720400
  92.1353760  32.7760240  61.0206230  92.8792710  31.4624360  60.9066590
 100.2194600  26.3580800  46.6221600 100.1388650  25.4435410  46.3513310
  99.8059020  26.8547870  45.9161310  98.3512640  28.1359820  48.5030870
  97.5754740  27.6560260  48.7929440  99.0025570  27.4565470  48.3287030
 102.3720070  32.5420010  47.2830000 101.9101600  31.7707250  47.6117170
 103.1845620  32.5686080  47.7882450  92.3479730  32.4819720  49.5764650
  92.6507770  31.5917460  49.3974870  93.0923320  33.0389940  49.3486900
  90.7770420  23.4081520  43.1649020  89.8887120  23.7497490  43.0628900
  91.0611610  23.2081840  42.2729850  88.7403430  26.0087170  49.0488720
  89.3119540  25.2409370  49.0492360  88.7404970  26.3075930  48.1395330
  89.9828300  21.4171530  50.8357650  89.8031140  20.5197280  51.1160410
  89.5808380  21.9643400  51.5104600  98.8226800  23.6187390  48.7369960
  99.1991620  22.7459270  48.6243630  98.7246310  23.9546090  47.8460400
  92.9531810  21.9913020  44.1987400  93.0598560  22.8916750  44.5056160
  92.0424170  21.9430990  43.9082050 102.6050920  21.1137830  45.6698300
 103.4260540  20.6234400  45.7123780 102.6385000  21.7035490  46.4230140
  90.6014970  23.9132030  49.4439990  91.2825080  24.1770400  50.0627390
  90.2863020  23.0732900  49.7778000  94.7939540  24.9599390  48.5312580
  95.3017760  25.4580360  49.1717600  95.3252780  24.1834590  48.3551940
 106.8950470  23.1304580  52.2341930 106.1902640  23.5186290  51.7157040
 107.1608390  23.8254870  52.8362860  93.0775640  19.5997950  52.7976000
  93.0794080  20.1170340  51.9921900  92.2479950  19.1228130  52.7745930
  99.4646730  29.7117260  44.2965900  98.8464000  30.1766710  43.7328620
  99.9769980  30.4044740  44.7135410  94.3278490  29.2393130  50.9749500
  93.9947870  29.8662050  51.6170570  94.5045170  29.7655010  50.1951170
 102.8412400  23.0538210  48.4425840 102.1367970  23.3423100  49.0228950
 103.2024560  23.8638320  48.0825400  92.7590970  21.3107910  50.8046450
  93.1007780  22.1549960  50.5100320  91.8206780  21.4591650  50.9211790
  93.5397590  31.2073930  52.7898680  94.1571590  31.8825010  52.5083130
  92.6790710  31.6161910  52.6986180 104.4575180  32.6713340  50.7053320
 103.7738700  33.3412450  50.6969990 104.9969470  32.8693990  49.9398180
 105.9099320  22.4993000  48.8335050 104.9624230  22.5331980  48.9650480
 106.2349310  23.3131950  49.2184410  96.4418860  18.7990180  47.1291040
  96.7493840  18.2437070  46.4126540  95.5119560  18.9334640  46.9464030
 103.2879340  31.2373690  44.5088670 103.1775670  30.2948020  44.6338090
 103.2847590  31.5989330  45.3951430 101.3919360  29.4187310  50.7481110
 101.8088150  29.2047420  49.9134570 102.1159180  29.6760100  51.3189730
  98.8299620  26.8639010  43.8651160  97.9028900  26.7976390  44.0939630
  98.9824440  27.8019140  43.7506400  98.8168700  23.1356010  40.8618320
  97.8772370  23.2969970  40.9470780  99.1351960  23.8541690  40.3154310
 105.3381460  27.8174530  50.8397350 104.5100090  27.8867620  50.3647480
 105.9331940  28.4028840  50.3713180 102.8596910  28.4259310  44.3686410
 102.2409330  28.0878860  43.7212710 102.8421360  27.7819070  45.0765600
 102.3023470  24.6043850  51.7852220 101.8894650  25.4297560  52.0392210
 101.5699420  24.0188890  51.5928580  93.1484880  24.1646960  50.4269930
  93.6999470  24.2742300  49.6523180  93.6628390  24.5384560  51.1425160
 102.9923570  34.6503180  52.4733200 102.5154130  35.4575370  52.2805810
 102.3085360  33.9981510  52.6259410  93.9956390  30.8153000  55.4617900
  93.0984920  31.0392970  55.7091300  94.0209260  30.9387940  54.5129300
 101.0361610  27.6646120  41.3759160 101.4754890  26.8268550  41.2296980
 101.7490030  28.2975520  41.4623300  92.8227610  27.6866320  54.0375270
  92.6835380  28.5589120  54.4062670  91.9408970  27.3439130  53.8923210
  94.6207960  33.6288020  56.2460420  94.5923390  34.0330970  55.3788850
  94.4572930  32.6998380  56.0832020 104.6178750  18.9188930  39.6900200
 104.3051410  19.0115760  40.5899270 105.3791220  19.4969960  39.6397630
 106.5722780  34.4115120  57.5424590 107.0482500  34.8898010  58.2213670
 107.1929940  34.3432610  56.8170090  88.7746260  29.4563870  49.9546180
  88.8526680  29.5912640  49.0101900  89.3887940  28.7479760  50.1474300
 105.9756030  31.6027970  54.7024600 106.1019090  31.3639850  53.7841780
 106.0177410  30.7712510  55.1746680 101.8127170  35.5911310  42.7003410
 101.6528310  35.3014250  43.5985240 101.6473880  34.8151440  42.1648640
 101.5153300  33.0998870  41.2601410 100.8218460  33.0976160  40.6003690
 102.2576160  32.6758190  40.8295580 105.8280040  23.6560430  55.6674340
 105.2124310  24.1640100  55.1389800 105.5076460  22.7558760  55.6100280
  88.8305780  30.4978040  52.4940640  88.9936820  30.0283400  51.6760010
  89.2958230  29.9901600  53.1589480  93.6024550  19.6283800  47.5301210
  93.1592700  20.4093340  47.1985730  94.1609540  19.9513690  48.2372150
  97.8894360  22.4952320  53.1336530  97.4273730  22.7035340  53.9456470
  97.4872470  21.6811670  52.8307200 102.8898870  23.7161270  54.2633190
 102.0392460  23.4167020  54.5842260 102.7300660  23.9603280  53.3517010
  99.9848580  25.2163020  56.3631980 100.3101990  24.3826770  56.0234210
 100.7728910  25.7391540  56.5110310  96.7183370  19.2494500  42.4107040
  96.0937550  19.2454370  43.1360350  96.6313490  18.3825460  42.0143010
  95.6400450  20.1731130  49.3890810  95.9372780  21.0793960  49.3082830
  96.1886010  19.6849910  48.7750380 100.6236530  24.7580740  43.8573110
 100.0245420  25.4816540  43.6736730 101.1716140  24.6957520  43.0749560
  95.8337980  25.6502950  55.9242730  95.7381580  24.7097680  55.7743130
  96.6769960  25.8718020  55.5290800  99.2301400  23.3944280  45.8876390
  99.6230970  23.7116480  45.0745080  99.5918250  22.5156160  46.0020910
  90.9648520  22.0616620  54.0776510  90.5711910  22.9091830  54.2849290
  90.2766920  21.4242990  54.2685150  97.5393570  22.1451590  57.1473250
  96.8491890  21.9523790  57.7819340  98.2825870  22.4286230  57.6797550
  88.2665570  19.9845080  48.1106590  87.9778620  20.5547940  48.8231570
  89.0111330  19.5049530  48.4737820  99.8156540  25.9850030  49.9827170
  99.0837660  26.4936840  50.3317270  99.4180880  25.1680010  49.6815950
  96.2533930  22.6604230  48.3879660  96.2569990  22.2194180  47.5384200
  97.1485050  22.9821560  48.4951480  92.1036310  22.5430720  47.3473870
  91.7636360  23.0205950  48.1040920  91.3413630  22.0895840  46.9874970
  96.3154080  23.6616310  41.3786420  96.4366900  23.6202790  42.3272240
  95.9302590  24.5240460  41.2233150 100.2782450  21.4383710  49.3950110
 100.2955190  21.8892360  50.2391960 100.0298030  20.5389350  49.6083550
  95.3275580  25.9717450  40.7769720  94.7592480  25.5235700  40.1505630
  96.0364580  26.3310230  40.2434870 103.7053200  18.8515890  55.2336490
 104.0298970  18.1205550  55.7594470 103.7409710  18.5329530  54.3317480
  90.4044760  29.8729470  54.6536450  90.0199550  29.2323140  55.2519410
  90.7156950  30.5765590  55.2231180  96.5541900  26.7206010  50.1345070
  96.9212030  26.2464580  50.8806410  96.3646960  27.5947580  50.4753410
  89.4182390  21.4649700  46.2638540  89.1329310  21.1005370  47.1017160
  89.3561250  20.7330160  45.6501680  94.3441270  25.7614650  52.4529280
  94.0398340  26.6406630  52.6779640  95.2987730  25.8214440  52.4886720
 103.6311040  28.9641000  48.8422520 104.3510160  29.4596290  48.4518630
 103.4292860  28.2858890  48.1976390  99.0920980  20.3578960  42.9851910
  98.2785590  19.8592130  42.9097220  98.8982930  21.1977210  42.5688260
  99.0129840  29.0350060  54.7291520  98.9467150  28.1145730  54.4749110
  98.3834980  29.1325500  55.4436160 101.8069370  24.7298610  41.2814070
 102.6948990  25.0415840  41.1065410 101.7774460  23.8570860  40.8894650
  97.8029960  30.9022300  41.9602240  98.1445660  31.6464530  41.4645560
  96.9742670  31.2153420  42.3227070  90.4005000  26.6017390  53.6000640
  90.0419940  27.2671240  54.1873980  90.1059560  25.7700940  53.9713260
  93.6018120  27.0601630  56.4840190  93.3018260  27.2058810  55.5868010
  94.3729360  26.5006920  56.3913580  98.9446570  31.8570630  54.4795320
  98.9591110  30.9251590  54.2614230  98.2371670  31.9430390  55.1185090
 104.0783640  26.0410450  40.7493930 103.9947360  26.4724670  39.8990370
 104.7977830  26.5008800  41.1820750 105.1557780  28.4977970  53.8263900
 104.4305970  29.0906750  53.6293290 105.6833240  28.4901510  53.0277270
 105.1070890  32.8952710  43.4776060 104.4647050  32.2408330  43.7519780
 104.7201550  33.3007800  42.7016730 100.6857370  30.2238140  47.3247750
 101.0381190  29.6266270  46.6649120  99.8019700  29.8982370  47.4956000
  91.9759640  18.3319510  44.8166040  91.8474270  18.3237410  45.7650960
  91.1521660  18.6702600  44.4657050 103.4968270  31.7869170  40.0152410
 103.2705850  31.0699610  40.6077050 103.1064470  31.5381610  39.1774160
 101.4250170  32.3015450  53.4949330 101.7606410  32.8882140  54.1727250
 100.5050510  32.1708160  53.7247120  88.9753570  20.0910630  54.2772740
  88.2612090  20.2907550  54.8825350  89.3948610  19.3150200  54.6487540
 103.0784520  29.7041110  41.6766570 102.7906220  30.1653800  42.4644450
 103.8736690  29.2438880  41.9450790  89.2626160  34.0790890  55.2639270
  89.3717280  33.1385630  55.1234660  88.6106720  34.3445640  54.6153000
  97.2538750  32.3506780  56.6637390  96.9335620  31.6316020  57.2083080
  96.5797110  33.0261850  56.7373450 100.4692350  22.5832940  52.0274190
 100.8373170  21.7628150  52.3553760  99.6090550  22.6434830  52.4429840
 103.8354380  21.5389880  42.8361750 103.2067540  21.6435550  42.1219980
 103.3406300  21.7586660  43.6255630  98.2812520  33.2595470  40.2695730
  98.3824500  33.0559460  39.3397710  97.3814260  33.0053750  40.4743510
  95.8038410  23.8175830  44.2519630  95.0954560  24.2862170  44.6933240
  96.0882890  23.1597840  44.8864820  97.4294340  25.2372530  52.2512160
  97.9279590  25.7118350  52.9164010  97.5717290  24.3136050  52.4582190
  99.8353840  20.5426490  45.6915420  99.7121620  20.5612620  44.7424930
 100.7838400  20.5905430  45.8113820  94.0073430  22.1260910  41.6270340
  94.8563960  22.5631060  41.5610530  93.6404700  22.4381170  42.4542400
 104.6361200  21.4540490  53.0940550 104.1334800  22.1945890  53.4334360
 105.4517860  21.8424490  52.7777340 102.9283210  26.6973670  46.5401910
 101.9873350  26.7123900  46.7149600 103.2427280  25.9109630  46.9862210
 104.9308790  33.8682520  48.2156170 105.0556210  34.6913690  48.6879980
 105.7974350  33.6573250  47.8680320  91.4084600  35.1459800  57.0758880
  92.2097330  35.4671850  57.4894280  90.8936420  34.7855380  57.7978790
  95.5128630  35.1344040  39.7098870  96.3057240  35.4232870  39.2580660
  94.9932980  34.7036210  39.0311350 100.2449230  31.2539670  57.0234290
  99.6387390  31.2771270  56.2830040  99.9403340  30.5222710  57.5601540
 101.6749600  34.9819960  55.6343700 102.6271350  34.8977980  55.5843940
 101.5277820  35.6461670  56.3077490 104.5658800  34.3614170  41.1335610
 104.2800310  33.9479310  40.3189790 104.3678350  35.2901880  41.0136130
  89.1282410  27.6333260  56.0194930  89.6321430  27.0540540  56.5911160
  88.3889830  27.9173490  56.5571300  96.1820350  29.0404250  55.5530450
  95.4166020  29.6089250  55.4685120  96.3636310  28.7480460  54.6598680
  99.2708760  29.4167480  40.1783210  98.7218860  29.8636780  40.8225950
  99.8928020  28.9116730  40.7020880 103.3243700  30.7709580  56.1105470
 104.0653170  31.1085340  55.6072930 102.5616380  30.9401640  55.5575240
  91.1605490  25.7762850  56.9145000  91.2010830  25.4776720  57.8230230
  92.0150990  26.1770460  56.7552520  93.1011300  24.3554950  54.8819490
  92.5707760  23.8645900  54.2542830  93.7699370  24.7839150  54.3477420
  97.4511520  27.3996010  39.3225610  97.9717180  26.6845030  38.9566760
  98.0979920  28.0381880  39.6226120 101.9989360  28.8224410  54.6460680
 102.4130380  28.9769490  55.4951100 101.0640360  28.9479630  54.8086460
 102.4711530  26.1620570  56.6499830 103.0532300  25.4072890  56.5620310
 102.6473300  26.6928010  55.8731310  93.5883600  21.3217320  54.9616780
  93.4940470  20.7038070  54.2367650  93.0080990  22.0483610  54.7346690
  96.3545040  19.8790560  51.9944170  95.9062340  19.9014820  51.1489720
  95.7210240  19.4809580  52.5914470  96.7604590  28.7744890  52.6156610
  97.1792700  29.6177620  52.4432850  95.8413220  28.9116930  52.3863390
  99.0968490  26.5061070  53.9994450  99.2164700  25.9102210  54.7389290
  99.9562490  26.5430760  53.5795750 101.4356390  27.0598260  52.5756960
 100.9091610  27.5840880  51.9722100 101.7787730  27.6925650  53.2066690
  93.8342780  24.4491630  39.0206670  93.6331840  23.5858990  39.3820010
  93.6634830  24.3624990  38.0828270  94.6112010  35.0797900  53.7314340
  94.0733100  35.8043960  53.4123040  94.8645970  34.6028240  52.9411680
  95.8637260  23.0482420  55.2570270  96.4536950  22.7398270  55.9448090
  95.0457500  22.5762170  55.4130170 100.6830690  22.6648230  55.4903290
  99.9946210  22.0029770  55.4253280 101.4036710  22.2186500  55.9351750
 101.3131090  19.2599860  41.5493550 101.5933380  18.4167760  41.9052970
 100.5396820  19.4922970  42.0632300  92.6325580  21.5492250  39.0084550
  92.9351480  21.5559680  38.1003700  93.3720170  21.1990110  39.5052210
  97.4674220  36.3149110  53.9900990  97.3932920  37.2184250  54.2973360
  96.5653060  35.9961010  53.9623060  95.8510510  20.4926870  39.9940750
  95.5032510  19.8150860  39.4143200  96.0523280  20.0316380  40.8084140
  89.3591720  34.5094290  50.0316240  88.9222710  34.6895090  50.8640390
  89.9269400  35.2668910  49.8897960 104.9953900  34.0111290  54.3193550
 104.3955890  34.0703850  53.5757470 105.1247800  33.0716270  54.4490400
 106.2355350  31.7529110  39.6563260 105.4048310  31.8205760  40.1270490
 106.4127180  32.6433230  39.3530120 105.6911810  28.4976590  42.1597460
 106.4530720  29.0673240  42.2657150 105.7066180  27.9303790  42.9305770
 106.6971780  29.3526690  47.0039390 107.0680610  28.5694010  46.5975360
 107.3373710  30.0415790  46.8256690 103.6805540  30.7363270  52.4169710
 102.8665380  31.1660430  52.6795500 104.0879740  31.3481680  51.8038760
 105.7430980  28.7910960  39.3169980 106.0179820  29.6989840  39.1889200
 105.5541720  28.7273490  40.2531970 102.1406590  21.8155810  40.6123610
 102.5591470  21.6286790  39.7720270 101.8342650  20.9634860  40.9226540
 105.6396320  26.7279950  44.3099410 105.2639920  25.9607880  43.8780700
 104.9099440  27.1102650  44.7974340  90.2292080  27.4067090  50.9308460
  90.5965120  27.3194490  51.8104480  89.6602900  26.6433640  50.8315320
 105.0295940  25.8751470  53.9438930 104.7982030  25.6464220  53.0436880
 105.2900490  26.7951020  53.8983820  89.7808080  24.3176180  54.8366880
  88.8864130  24.2842940  55.1760590  90.3205630  24.5162970  55.6018130
 103.4684010  21.1007900  56.7218630 104.3454190  21.1091300  57.1052630
 103.4804850  20.3638740  56.1110980 104.9147280  24.9537440  47.6106650
 105.4384760  24.4600090  46.9796820 105.5006700  25.0887800  48.3554220
 105.0937000  25.0377310  51.1326200 104.1439710  25.0040850  51.2471190
 105.2750010  25.9477420  50.8975970  90.5955600  19.3418320  39.2827480
  91.3183730  19.8827260  39.6008700  90.8680120  19.0681740  38.4069020
 104.4047250  24.2110790  43.5499060 104.9006370  23.9781660  44.3347940
 104.2063320  23.3722630  43.1336700  90.2847790  18.5924510  49.1850100
  90.9323980  18.0421890  48.7445260  90.7049630  18.8467660  50.0065910
 105.8334410  22.8471740  46.0836740 105.7233690  22.6927780  47.0219010
 106.5942000  22.3192680  45.8412150 104.1800130  18.7865870  52.5419740
 104.8172350  19.4000010  52.9078930 104.3275020  18.8226530  51.5968970
 106.7224680  20.6779660  39.3242880 107.6473990  20.5460840  39.1161170
 106.7000470  20.7572480  40.2779330 106.7963170  21.4490320  41.9499590
 106.0014670  21.3835440  42.4792500 107.0006450  22.3840960  41.9384940
 103.7381590  35.4881870  45.9437980 104.3340660  35.1666440  45.2672400
 103.9959740  35.0153690  46.7351250  90.0379790  18.7480180  51.9275420
  89.6894610  19.2044000  52.6933600  89.7067490  17.8537310  52.0097850
  91.6444160  31.9199780  56.0928610  91.6013790  31.5492690  56.9743070
  91.7755170  32.8577350  56.2330430  95.3450190  33.4759370  51.6938330
  95.1041550  33.7433930  50.8068850  96.2852830  33.6465100  51.7489190
  97.5504610  19.9392060  55.4494840  97.4893500  20.5313890  56.1990250
  98.4904990  19.8318020  55.3045100 100.1879170  19.5962120  55.0887130
 100.8019580  19.9141410  54.4268210 100.7328730  19.1110710  55.7082990
 106.6054350  35.4953750  52.4948970 106.1112630  35.8922620  51.7776100
 105.9967640  34.8702960  52.8886250  90.7100430  18.2756380  55.2026190
  91.2583420  18.0944430  54.4392300  90.7755740  17.4850490  55.7382500
  91.4832190  34.8662030  53.2126390  90.8892510  34.7346730  53.9516430
  91.4756030  34.0300170  52.7468490 100.9287210  18.1594260  51.4156420
 100.0547050  18.4929370  51.2129350 100.8197960  17.6867440  52.2408290
 101.8359190  20.3665130  52.7998140 101.5072550  19.5516890  52.4199870
 102.7841490  20.3234940  52.6763830  91.1144420  32.2320410  52.1634430
  90.3878480  31.6125700  52.0960380  91.1753570  32.6261020  51.2932510
  98.6762030  19.0764100  50.3549330  97.8933820  19.5509600  50.6346090
  98.3824960  18.1718930  50.2462510 103.2283100  19.7787200  48.3998420
 103.6691190  19.7232300  47.5520020 102.9590690  20.6945210  48.4708600
 105.0921670  19.4102440  46.4107240 105.0310070  18.4663660  46.2638260
 105.8713700  19.5182530  46.9560700  90.0202440  19.3811580  42.8763050
  90.7781800  19.4940460  42.3027080  89.5579610  20.2180780  42.8306480
  96.5616250  21.4950850  45.8665360  95.7490760  21.1207740  45.5261240
  97.0657890  20.7395930  46.1686550 101.0641230  18.1593300  47.1048430
 101.6670600  18.7313510  47.5796950 100.3234220  18.7232740  46.8822330
 104.2075830  18.5614860  42.3788710 104.4026460  19.4598310  42.6456140
 103.4205700  18.3301940  42.8721660  92.3927590  19.9075630  41.4165020
  92.9220350  19.1205430  41.2872970  93.0255910  20.5866820  41.6500550
  94.5865430  19.6450770  44.4710410  93.9568170  18.9438080  44.6380540
  94.0470570  20.4054900  44.2543570  97.5257380  36.2590000  57.1421020
  98.4524690  36.0234270  57.1856980  97.5107810  37.0862000  56.6607050
 105.7602440  35.8015570  44.1395270 105.9354630  35.1153310  43.4956190
 105.0624010  36.3262620  43.7471940  94.7120990  18.9234750  56.9062900
  94.4305260  19.4268350  56.1423720  95.0940690  18.1256500  56.5405030
 101.3136450  18.3388330  57.4843370 101.2001900  18.6582940  58.3794890
 102.1306190  18.7400840  57.1880650 104.0934940  35.4859860  56.9662060
 104.8860260  34.9909090  56.7588020 104.3868090  36.1650000  57.5737670
 100.2194600  26.3580800  27.8478110 100.1388650  25.4435410  27.5769820
  99.8059020  26.8547870  27.1417820  98.3512640  28.1359820  29.7287380
  97.5754740  27.6560260  30.0185950  99.0025570  27.4565470  29.5543540
 102.3720070  32.5420010  28.5086510 101.9101600  31.7707250  28.8373680
 103.1845620  32.5686080  29.0138960  90.7770420  23.4081520  24.3905530
  89.8887120  23.7497490  24.2885410  91.0611610  23.2081840  23.4986360
  98.5983380  34.8278020  28.1290500  97.9794820  35.2835520  27.5584940
  99.4535160  34.9829480  27.7280200  97.7921630  30.8117010  29.7357540
  97.7229910  29.8706950  29.5746670  98.5541490  30.9018420  30.3080110
  98.8226800  23.6187390  29.9626470  99.1991620  22.7459270  29.8500140
  98.7246310  23.9546090  29.0716910  92.9531810  21.9913020  25.4243910
  93.0598560  22.8916750  25.7312670  92.0424170  21.9430990  25.1338560
 102.6050920  21.1137830  26.8954810 103.4260540  20.6234400  26.9380290
 102.6385000  21.7035490  27.6486650 106.8950470  23.1304580  33.4598440
 106.1902640  23.5186290  32.9413550 107.1608390  23.8254870  34.0619370
  93.0775640  19.5997950  34.0232510  93.0794080  20.1170340  33.2178410
  92.2479950  19.1228130  34.0002440  99.4646730  29.7117260  25.5222410
  98.8464000  30.1766710  24.9585130  99.9769980  30.4044740  25.9391920
 102.8412400  23.0538210  29.6682350 102.1367970  23.3423100  30.2485460
 103.2024560  23.8638320  29.3081910  92.7590970  21.3107910  32.0302960
  93.1007780  22.1549960  31.7356830  91.8206780  21.4591650  32.1468300
 104.4575180  32.6713340  31.9309830 103.7738700  33.3412450  31.9226500
 104.9969470  32.8693990  31.1654690 105.9099320  22.4993000  30.0591560
 104.9624230  22.5331980  30.1906990 106.2349310  23.3131950  30.4440920
  96.4418860  18.7990180  28.3547550  96.7493840  18.2437070  27.6383050
  95.5119560  18.9334640  28.1720540 101.9933920  34.5157470  30.6455010
 102.0061080  34.1119760  29.7777270 101.4409140  35.2904760  30.5416440
 103.2879340  31.2373690  25.7345180 103.1775670  30.2948020  25.8594600
 103.2847590  31.5989330  26.6207940 101.3919360  29.4187310  31.9737620
 101.8088150  29.2047420  31.1391080 102.1159180  29.6760100  32.5446240
  98.8299620  26.8639010  25.0907670  97.9028900  26.7976390  25.3196140
  98.9824440  27.8019140  24.9762910  98.8168700  23.1356010  22.0874830
  97.8772370  23.2969970  22.1727290  99.1351960  23.8541690  21.5410820
 105.3381460  27.8174530  32.0653860 104.5100090  27.8867620  31.5903990
 105.9331940  28.4028840  31.5969690 102.8596910  28.4259310  25.5942920
 102.2409330  28.0878860  24.9469220 102.8421360  27.7819070  26.3022110
 102.3023470  24.6043850  33.0108730 101.8894650  25.4297560  33.2648720
 101.5699420  24.0188890  32.8185090 102.9923570  34.6503180  33.6989710
 102.5154130  35.4575370  33.5062320 102.3085360  33.9981510  33.8515920
 101.0361610  27.6646120  22.6015670 101.4754890  26.8268550  22.4553490
 101.7490030  28.2975520  22.6879810  99.1456990  32.6042190  26.5696910
  99.5852900  33.3466520  26.1552300  99.0843880  32.8468760  27.4935870
 104.6178750  18.9188930  20.9156710 104.3051410  19.0115760  21.8155780
 105.3791220  19.4969960  20.8654140 106.5722780  34.4115120  38.7681100
 107.0482500  34.8898010  39.4470180 107.1929940  34.3432610  38.0426600
 105.9756030  31.6027970  35.9281110 106.1019090  31.3639850  35.0098290
 106.0177410  30.7712510  36.4003190  99.8372770  35.3055970  34.4975920
 100.3517440  35.2163980  35.2998350  98.9941850  35.6515670  34.7903830
 101.8127170  35.5911310  23.9259920 101.6528310  35.3014250  24.8241750
 101.6473880  34.8151440  23.3905150 101.5153300  33.0998870  22.4857920
 100.8218460  33.0976160  21.8260200 102.2576160  32.6758190  22.0552090
 101.0803230  34.7261580  26.5606410 101.5360180  33.9450960  26.8745030
 101.4195750  35.4368400  27.1047590 105.8280040  23.6560430  36.8930850
 105.2124310  24.1640100  36.3646310 105.5076460  22.7558760  36.8356790
  93.6024550  19.6283800  28.7557720  93.1592700  20.4093340  28.4242240
  94.1609540  19.9513690  29.4628660  97.8894360  22.4952320  34.3593040
  97.4273730  22.7035340  35.1712980  97.4872470  21.6811670  34.0563710
 102.8898870  23.7161270  35.4889700 102.0392460  23.4167020  35.8098770
 102.7300660  23.9603280  34.5773520  99.9848580  25.2163020  37.5888490
 100.3101990  24.3826770  37.2490720 100.7728910  25.7391540  37.7366820
  96.7183370  19.2494500  23.6363550  96.0937550  19.2454370  24.3616860
  96.6313490  18.3825460  23.2399520  95.6400450  20.1731130  30.6147320
  95.9372780  21.0793960  30.5339340  96.1886010  19.6849910  30.0006890
  93.3938770  24.7517370  26.4838970  93.1679690  24.5354540  27.3885590
  92.6131300  25.1845830  26.1384940 100.6236530  24.7580740  25.0829620
 100.0245420  25.4816540  24.8993240 101.1716140  24.6957520  24.3006070
  95.8337980  25.6502950  37.1499240  95.7381580  24.7097680  36.9999640
  96.6769960  25.8718020  36.7547310  99.2301400  23.3944280  27.1132900
  99.6230970  23.7116480  26.3001590  99.5918250  22.5156160  27.2277420
  97.5393570  22.1451590  38.3729760  96.8491890  21.9523790  39.0075850
  98.2825870  22.4286230  38.9054060  88.4535800  23.9265200  20.5465820
  88.3710470  24.8695960  20.6880810  88.1018860  23.7840110  19.6678170
  99.8156540  25.9850030  31.2083680  99.0837660  26.4936840  31.5573780
  99.4180880  25.1680010  30.9072460  96.2533930  22.6604230  29.6136170
  96.2569990  22.2194180  28.7640710  97.1485050  22.9821560  29.7207990
  92.1036310  22.5430720  28.5730380  91.7636360  23.0205950  29.3297430
  91.3413630  22.0895840  28.2131480  96.3154080  23.6616310  22.6042930
  96.4366900  23.6202790  23.5528750  95.9302590  24.5240460  22.4489660
 100.2782450  21.4383710  30.6206620 100.2955190  21.8892360  31.4648470
 100.0298030  20.5389350  30.8340060  95.3275580  25.9717450  22.0026230
  94.7592480  25.5235700  21.3762140  96.0364580  26.3310230  21.4691380
 103.7053200  18.8515890  36.4593000 104.0298970  18.1205550  36.9850980
 103.7409710  18.5329530  35.5573990  96.5541900  26.7206010  31.3601580
  96.9212030  26.2464580  32.1062920  96.3646960  27.5947580  31.7009920
  89.4182390  21.4649700  27.4895050  89.1329310  21.1005370  28.3273670
  89.3561250  20.7330160  26.8758190 103.6311040  28.9641000  30.0679030
 104.3510160  29.4596290  29.6775140 103.4292860  28.2858890  29.4232900
  99.0920980  20.3578960  24.2108420  98.2785590  19.8592130  24.1353730
  98.8982930  21.1977210  23.7944770  99.0129840  29.0350060  35.9548030
  98.9467150  28.1145730  35.7005620  98.3834980  29.1325500  36.6692670
 101.8069370  24.7298610  22.5070580 102.6948990  25.0415840  22.3321920
 101.7774460  23.8570860  22.1151160  97.8029960  30.9022300  23.1858750
  98.1445660  31.6464530  22.6902070  96.9742670  31.2153420  23.5483580
  98.9446570  31.8570630  35.7051830  98.9591110  30.9251590  35.4870740
  98.2371670  31.9430390  36.3441600 104.0783640  26.0410450  21.9750440
 103.9947360  26.4724670  21.1246880 104.7977830  26.5008800  22.4077260
 105.1557780  28.4977970  35.0520410 104.4305970  29.0906750  34.8549800
 105.6833240  28.4901510  34.2533780 105.1070890  32.8952710  24.7032570
 104.4647050  32.2408330  24.9776290 104.7201550  33.3007800  23.9273240
 100.6857370  30.2238140  28.5504260 101.0381190  29.6266270  27.8905630
  99.8019700  29.8982370  28.7212510  96.7720650  30.9835830  25.9574670
  97.4591780  31.5305040  26.3382260  95.9853070  31.5276560  25.9924280
  96.0747860  27.9881860  25.5700030  96.5310640  28.7987110  25.7960220
  95.7236070  27.6705000  26.4018520  98.3780470  33.4988200  32.7992330
  99.0222690  33.7047580  33.4765750  98.7409910  32.7376600  32.3463180
  91.9759640  18.3319510  26.0422550  91.8474270  18.3237410  26.9907470
  91.1521660  18.6702600  25.6913560  99.6512550  31.5020550  31.5169780
 100.2934780  30.8013710  31.6301950 100.1761900  32.2818990  31.3366670
 103.4968270  31.7869170  21.2408920 103.2705850  31.0699610  21.8333560
 103.1064470  31.5381610  20.4030670 101.4250170  32.3015450  34.7205840
 101.7606410  32.8882140  35.3983760 100.5050510  32.1708160  34.9503630
 103.0784520  29.7041110  22.9023080 102.7906220  30.1653800  23.6900960
 103.8736690  29.2438880  23.1707300  97.2538750  32.3506780  37.8893900
  96.9335620  31.6316020  38.4339590  96.5797110  33.0261850  37.9629960
  95.2952920  33.1967230  22.8327050  95.2863020  33.9296920  22.2171560
  94.3751280  32.9498810  22.9254010 100.4692350  22.5832940  33.2530700
 100.8373170  21.7628150  33.5810270  99.6090550  22.6434830  33.6686350
 103.8354380  21.5389880  24.0618260 103.2067540  21.6435550  23.3476490
 103.3406300  21.7586660  24.8512140  98.2812520  33.2595470  21.4952240
  98.3824500  33.0559460  20.5654220  97.3814260  33.0053750  21.7000020
  95.8038410  23.8175830  25.4776140  95.0954560  24.2862170  25.9189750
  96.0882890  23.1597840  26.1121330  97.4294340  25.2372530  33.4768670
  97.9279590  25.7118350  34.1420520  97.5717290  24.3136050  33.6838700
  99.8353840  20.5426490  26.9171930  99.7121620  20.5612620  25.9681440
 100.7838400  20.5905430  27.0370330  96.9230630  35.7781790  26.1899910
  97.1772130  35.7403180  25.2679280  95.9743110  35.6515120  26.1828160
  94.0073430  22.1260910  22.8526850  94.8563960  22.5631060  22.7867040
  93.6404700  22.4381170  23.6798910 104.6361200  21.4540490  34.3197060
 104.1334800  22.1945890  34.6590870 105.4517860  21.8424490  34.0033850
 102.9283210  26.6973670  27.7658420 101.9873350  26.7123900  27.9406110
 103.2427280  25.9109630  28.2118720  92.9064850  28.3793270  21.3262380
  93.6728120  28.2674630  21.8887810  92.9839540  27.6831240  20.6739150
  91.6011610  25.8118340  22.0095270  91.6815200  24.8645850  22.1212670
  92.4931360  26.1425220  22.1155930 104.9308790  33.8682520  29.4412680
 105.0556210  34.6913690  29.9136490 105.7974350  33.6573250  29.0936830
  95.5128630  35.1344040  20.9355380  96.3057240  35.4232870  20.4837170
  94.9932980  34.7036210  20.2567860 100.2449230  31.2539670  38.2490800
  99.6387390  31.2771270  37.5086550  99.9403340  30.5222710  38.7858050
 101.6749600  34.9819960  36.8600210 102.6271350  34.8977980  36.8100450
 101.5277820  35.6461670  37.5334000 104.5658800  34.3614170  22.3592120
 104.2800310  33.9479310  21.5446300 104.3678350  35.2901880  22.2392640
  96.0306030  30.3547450  20.7997730  95.9256670  29.7399800  21.5259110
  95.8630250  29.8313340  20.0160740  96.1820350  29.0404250  36.7786960
  95.4166020  29.6089250  36.6941630  96.3636310  28.7480460  35.8855190
  99.2708760  29.4167480  21.4039720  98.7218860  29.8636780  22.0482460
  99.8928020  28.9116730  21.9277390 103.3243700  30.7709580  37.3361980
 104.0653170  31.1085340  36.8329440 102.5616380  30.9401640  36.7831750
  94.9383880  28.3758400  23.3005020  95.3600300  28.2098270  24.1436410
  95.0634720  27.5658630  22.8060160  97.4511520  27.3996010  20.5482120
  97.9717180  26.6845030  20.1823270  98.0979920  28.0381880  20.8482630
 101.9989360  28.8224410  35.8717190 102.4130380  28.9769490  36.7207610
 101.0640360  28.9479630  36.0342970 102.4711530  26.1620570  37.8756340
 103.0532300  25.4072890  37.7876820 102.6473300  26.6928010  37.0987820
  93.5883600  21.3217320  36.1873290  93.4940470  20.7038070  35.4624160
  93.0080990  22.0483610  35.9603200  96.3545040  19.8790560  33.2200680
  95.9062340  19.9014820  32.3746230  95.7210240  19.4809580  33.8170980
  96.7604590  28.7744890  33.8413120  97.1792700  29.6177620  33.6689360
  95.8413220  28.9116930  33.6119900  99.0968490  26.5061070  35.2250960
  99.2164700  25.9102210  35.9645800  99.9562490  26.5430760  34.8052260
 101.4356390  27.0598260  33.8013470 100.9091610  27.5840880  33.1978610
 101.7787730  27.6925650  34.4323200  93.8342780  24.4491630  20.2463180
  93.6331840  23.5858990  20.6076520  93.6634830  24.3624990  19.3084780
  95.8637260  23.0482420  36.4826780  96.4536950  22.7398270  37.1704600
  95.0457500  22.5762170  36.6386680 100.6830690  22.6648230  36.7159800
  99.9946210  22.0029770  36.6509790 101.4036710  22.2186500  37.1608260
 101.3131090  19.2599860  22.7750060 101.5933380  18.4167760  23.1309480
 100.5396820  19.4922970  23.2888810  92.6325580  21.5492250  20.2341060
  92.9351480  21.5559680  19.3260210  93.3720170  21.1990110  20.7308720
  97.4674220  36.3149110  35.2157500  97.3932920  37.2184250  35.5229870
  96.5653060  35.9961010  35.1879570  95.8510510  20.4926870  21.2197260
  95.5032510  19.8150860  20.6399710  96.0523280  20.0316380  22.0340650
  98.0159550  35.4807620  22.8383860  98.9110340  35.8192590  22.8602620
  98.0477180  34.7587030  22.2108140 104.9953900  34.0111290  35.5450060
 104.3955890  34.0703850  34.8013980 105.1247800  33.0716270  35.6746910
 106.2355350  31.7529110  20.8819770 105.4048310  31.8205760  21.3527000
 106.4127180  32.6433230  20.5786630 105.6911810  28.4976590  23.3853970
 106.4530720  29.0673240  23.4913660 105.7066180  27.9303790  24.1562280
 106.6971780  29.3526690  28.2295900 107.0680610  28.5694010  27.8231870
 107.3373710  30.0415790  28.0513200 103.6805540  30.7363270  33.6426220
 102.8665380  31.1660430  33.9052010 104.0879740  31.3481680  33.0295270
 105.7430980  28.7910960  20.5426490 106.0179820  29.6989840  20.4145710
 105.5541720  28.7273490  21.4788480 102.1406590  21.8155810  21.8380120
 102.5591470  21.6286790  20.9976780 101.8342650  20.9634860  22.1483050
 105.6396320  26.7279950  25.5355920 105.2639920  25.9607880  25.1037210
 104.9099440  27.1102650  26.0230850 105.0295940  25.8751470  35.1695440
 104.7982030  25.6464220  34.2693390 105.2900490  26.7951020  35.1240330
 103.4684010  21.1007900  37.9475140 104.3454190  21.1091300  38.3309140
 103.4804850  20.3638740  37.3367490 104.9147280  24.9537440  28.8363160
 105.4384760  24.4600090  28.2053330 105.5006700  25.0887800  29.5810730
 105.0937000  25.0377310  32.3582710 104.1439710  25.0040850  32.4727700
 105.2750010  25.9477420  32.1232480  90.9481440  23.2878990  21.4681340
  91.6573140  22.8662210  20.9828620  90.2321380  23.3554220  20.8364690
  90.5955600  19.3418320  20.5083990  91.3183730  19.8827260  20.8265210
  90.8680120  19.0681740  19.6325530 104.4047250  24.2110790  24.7755570
 104.9006370  23.9781660  25.5604450 104.2063320  23.3722630  24.3593210
 105.8334410  22.8471740  27.3093250 105.7233690  22.6927780  28.2475520
 106.5942000  22.3192680  27.0668660 104.1800130  18.7865870  33.7676250
 104.8172350  19.4000010  34.1335440 104.3275020  18.8226530  32.8225480
 106.7224680  20.6779660  20.5499390 107.6473990  20.5460840  20.3417680
 106.7000470  20.7572480  21.5035840 106.7963170  21.4490320  23.1756100
 106.0014670  21.3835440  23.7049010 107.0006450  22.3840960  23.1641450
 103.7381590  35.4881870  27.1694490 104.3340660  35.1666440  26.4928910
 103.9959740  35.0153690  27.9607760  95.3450190  33.4759370  32.9194840
  95.1041550  33.7433930  32.0325360  96.2852830  33.6465100  32.9745700
  97.5504610  19.9392060  36.6751350  97.4893500  20.5313890  37.4246760
  98.4904990  19.8318020  36.5301610 100.1879170  19.5962120  36.3143640
 100.8019580  19.9141410  35.6524720 100.7328730  19.1110710  36.9339500
 106.6054350  35.4953750  33.7205480 106.1112630  35.8922620  33.0032610
 105.9967640  34.8702960  34.1142760 100.9287210  18.1594260  32.6412930
 100.0547050  18.4929370  32.4385860 100.8197960  17.6867440  33.4664800
 101.8359190  20.3665130  34.0254650 101.5072550  19.5516890  33.6456380
 102.7841490  20.3234940  33.9020340 104.2893800  36.1377170  30.9992220
 103.8296770  36.8892980  30.6250240 103.6606260  35.4183640  30.9407020
  97.4585020  35.3373900  31.0009330  97.7462830  35.0828200  30.1242340
  97.9708240  34.7851260  31.5914900  98.6762030  19.0764100  31.5805840
  97.8933820  19.5509600  31.8602600  98.3824960  18.1718930  31.4719020
 103.2283100  19.7787200  29.6254930 103.6691190  19.7232300  28.7776530
 102.9590690  20.6945210  29.6965110 105.0921670  19.4102440  27.6363750
 105.0310070  18.4663660  27.4894770 105.8713700  19.5182530  28.1817210
  90.0202440  19.3811580  24.1019560  90.7781800  19.4940460  23.5283590
  89.5579610  20.2180780  24.0562990  96.5616250  21.4950850  27.0921870
  95.7490760  21.1207740  26.7517750  97.0657890  20.7395930  27.3943060
 101.0641230  18.1593300  28.3304940 101.6670600  18.7313510  28.8053460
 100.3234220  18.7232740  28.1078840 104.2075830  18.5614860  23.6045220
 104.4026460  19.4598310  23.8712650 103.4205700  18.3301940  24.0978170
  92.3927590  19.9075630  22.6421530  92.9220350  19.1205430  22.5129480
  93.0255910  20.5866820  22.8757060  94.5865430  19.6450770  25.6966920
  93.9568170  18.9438080  25.8637050  94.0470570  20.4054900  25.4800080
 105.7602440  35.8015570  25.3651780 105.9354630  35.1153310  24.7212700
 105.0624010  36.3262620  24.9728450  94.7120990  18.9234750  38.1319410
  94.4305260  19.4268350  37.3680230  95.0940690  18.1256500  37.7661540
 101.3136450  18.3388330  38.7099880 101.2001900  18.6582940  39.6051400
 102.1306190  18.7400840  38.4137160 104.0934940  35.4859860  38.1918570
 104.8860260  34.9909090  37.9844530 104.3868090  36.1650000  38.7994180
 100.2194600  26.3580800   9.0734620 100.1388650  25.4435410   8.8026330
  99.8059020  26.8547870   8.3674330  98.3512640  28.1359820  10.9543890
  97.5754740  27.6560260  11.2442460  99.0025570  27.4565470  10.7800050
  92.3678470  28.4479630  11.8319650  91.5363350  28.1928340  12.2316160
  92.9759450  28.5190400  12.5677570 102.3720070  32.5420010   9.7343020
 101.9101600  31.7707250  10.0630190 103.1845620  32.5686080  10.2395470
  92.3479730  32.4819720  12.0277670  92.6507770  31.5917460  11.8487890
  93.0923320  33.0389940  11.7999920  90.7770420  23.4081520   5.6162040
  89.8887120  23.7497490   5.5141920  91.0611610  23.2081840   4.7242870
  88.7403430  26.0087170  11.5001740  89.3119540  25.2409370  11.5005380
  88.7404970  26.3075930  10.5908350  98.5983380  34.8278020   9.3547010
  97.9794820  35.2835520   8.7841450  99.4535160  34.9829480   8.9536710
  97.7921630  30.8117010  10.9614050  97.7229910  29.8706950  10.8003180
  98.5541490  30.9018420  11.5336620  89.9828300  21.4171530  13.2870670
  89.8031140  20.5197280  13.5673430  89.5808380  21.9643400  13.9617620
  98.8226800  23.6187390  11.1882980  99.1991620  22.7459270  11.0756650
  98.7246310  23.9546090  10.2973420  92.9531810  21.9913020   6.6500420
  93.0598560  22.8916750   6.9569180  92.0424170  21.9430990   6.3595070
 102.6050920  21.1137830   8.1211320 103.4260540  20.6234400   8.1636800
 102.6385000  21.7035490   8.8743160  90.6014970  23.9132030  11.8953010
  91.2825080  24.1770400  12.5140410  90.2863020  23.0732900  12.2291020
  94.7939540  24.9599390  10.9825600  95.3017760  25.4580360  11.6230620
  95.3252780  24.1834590  10.8064960 106.8950470  23.1304580  14.6854950
 106.1902640  23.5186290  14.1670060 107.1608390  23.8254870  15.2875880
  93.0775640  19.5997950  15.2489020  93.0794080  20.1170340  14.4434920
  92.2479950  19.1228130  15.2258950  99.4646730  29.7117260   6.7478920
  98.8464000  30.1766710   6.1841640  99.9769980  30.4044740   7.1648430
  94.3278490  29.2393130  13.4262520  93.9947870  29.8662050  14.0683590
  94.5045170  29.7655010  12.6464190 102.8412400  23.0538210  10.8938860
 102.1367970  23.3423100  11.4741970 103.2024560  23.8638320  10.5338420
  92.7590970  21.3107910  13.2559470  93.1007780  22.1549960  12.9613340
  91.8206780  21.4591650  13.3724810  93.5397590  31.2073930  15.2411700
  94.1571590  31.8825010  14.9596150  92.6790710  31.6161910  15.1499200
  88.8329930  30.3973790   4.1218550  88.4557910  30.8860890   3.3903450
  89.0903000  31.0699070   4.7525080 104.4575180  32.6713340  13.1566340
 103.7738700  33.3412450  13.1483010 104.9969470  32.8693990  12.3911200
 105.9099320  22.4993000  11.2848070 104.9624230  22.5331980  11.4163500
 106.2349310  23.3131950  11.6697430  96.4418860  18.7990180   9.5804060
  96.7493840  18.2437070   8.8639560  95.5119560  18.9334640   9.3977050
 101.9933920  34.5157470  11.8711520 102.0061080  34.1119760  11.0033780
 101.4409140  35.2904760  11.7672950 103.2879340  31.2373690   6.9601690
 103.1775670  30.2948020   7.0851110 103.2847590  31.5989330   7.8464450
 101.3919360  29.4187310  13.1994130 101.8088150  29.2047420  12.3647590
 102.1159180  29.6760100  13.7702750  98.8299620  26.8639010   6.3164180
  97.9028900  26.7976390   6.5452650  98.9824440  27.8019140   6.2019420
  98.8168700  23.1356010   3.3131340  97.8772370  23.2969970   3.3983800
  99.1351960  23.8541690   2.7667330 105.3381460  27.8174530  13.2910370
 104.5100090  27.8867620  12.8160500 105.9331940  28.4028840  12.8226200
 102.8596910  28.4259310   6.8199430 102.2409330  28.0878860   6.1725730
 102.8421360  27.7819070   7.5278620 102.3023470  24.6043850  14.2365240
 101.8894650  25.4297560  14.4905230 101.5699420  24.0188890  14.0441600
  94.4356260  27.3903750   9.0983910  94.0313260  26.6781000   8.6029810
  94.5219380  27.0456990   9.9871950  94.9037960  31.0771310  11.2623120
  94.6066250  30.4716780  10.5830900  95.8537780  31.1148620  11.1512480
  93.1484880  24.1646960  12.8782950  93.6999470  24.2742300  12.1036200
  93.6628390  24.5384560  13.5938180 102.9923570  34.6503180  14.9246220
 102.5154130  35.4575370  14.7318830 102.3085360  33.9981510  15.0772430
  93.9956390  30.8153000  17.9130920  93.0984920  31.0392970  18.1604320
  94.0209260  30.9387940  16.9642320 101.0361610  27.6646120   3.8272180
 101.4754890  26.8268550   3.6810000 101.7490030  28.2975520   3.9136320
  92.8227610  27.6866320  16.4888290  92.6835380  28.5589120  16.8575690
  91.9408970  27.3439130  16.3436230  99.1456990  32.6042190   7.7953420
  99.5852900  33.3466520   7.3808810  99.0843880  32.8468760   8.7192380
 104.6178750  18.9188930   2.1413220 104.3051410  19.0115760   3.0412290
 105.3791220  19.4969960   2.0910650  91.1360890  26.2848730   6.5990560
  91.0158490  27.0110820   5.9871830  90.8261780  25.5151640   6.1218470
 106.5722780  34.4115120  19.9937610 107.0482500  34.8898010  20.6726690
 107.1929940  34.3432610  19.2683110  88.7746260  29.4563870  12.4059200
  88.8526680  29.5912640  11.4614920  89.3887940  28.7479760  12.5987320
  90.0193890  31.1564060   8.8165380  89.6121970  31.2978650   7.9618980
  90.9106900  30.8724220   8.6136590 105.9756030  31.6027970  17.1537620
 106.1019090  31.3639850  16.2354800 106.0177410  30.7712510  17.6259700
  99.8372770  35.3055970  15.7232430 100.3517440  35.2163980  16.5254860
  98.9941850  35.6515670  16.0160340 101.8127170  35.5911310   5.1516430
 101.6528310  35.3014250   6.0498260 101.6473880  34.8151440   4.6161660
  94.2915550  35.3709840   6.9288050  94.1158030  34.4545380   6.7155850
  93.4371290  35.7297130   7.1685850 101.5153300  33.0998870   3.7114430
 100.8218460  33.0976160   3.0516710 102.2576160  32.6758190   3.2808600
 101.0803230  34.7261580   7.7862920 101.5360180  33.9450960   8.1001540
 101.4195750  35.4368400   8.3304100 105.8280040  23.6560430  18.1187360
 105.2124310  24.1640100  17.5902820 105.5076460  22.7558760  18.0613300
  88.8305780  30.4978040  14.9453660  88.9936820  30.0283400  14.1273030
  89.2958230  29.9901600  15.6102500  93.6024550  19.6283800   9.9814230
  93.1592700  20.4093340   9.6498750  94.1609540  19.9513690  10.6885170
  97.8894360  22.4952320  15.5849550  97.4273730  22.7035340  16.3969490
  97.4872470  21.6811670  15.2820220 102.8898870  23.7161270  16.7146210
 102.0392460  23.4167020  17.0355280 102.7300660  23.9603280  15.8030030
  99.9848580  25.2163020  18.8145000 100.3101990  24.3826770  18.4747230
 100.7728910  25.7391540  18.9623330  96.7183370  19.2494500   4.8620060
  96.0937550  19.2454370   5.5873370  96.6313490  18.3825460   4.4656030
  95.6400450  20.1731130  11.8403830  95.9372780  21.0793960  11.7595850
  96.1886010  19.6849910  11.2263400  93.3938770  24.7517370   7.7095480
  93.1679690  24.5354540   8.6142100  92.6131300  25.1845830   7.3641450
 100.6236530  24.7580740   6.3086130 100.0245420  25.4816540   6.1249750
 101.1716140  24.6957520   5.5262580  95.8337980  25.6502950  18.3755750
  95.7381580  24.7097680  18.2256150  96.6769960  25.8718020  17.9803820
  99.2301400  23.3944280   8.3389410  99.6230970  23.7116480   7.5258100
  99.5918250  22.5156160   8.4533930  90.9648520  22.0616620  16.5289530
  90.5711910  22.9091830  16.7362310  90.2766920  21.4242990  16.7198170
  97.5393570  22.1451590  19.5986270  96.8491890  21.9523790  20.2332360
  98.2825870  22.4286230  20.1310570  88.2665570  19.9845080  10.5619610
  87.9778620  20.5547940  11.2744590  89.0111330  19.5049530  10.9250840
  99.8156540  25.9850030  12.4340190  99.0837660  26.4936840  12.7830290
  99.4180880  25.1680010  12.1328970  96.2533930  22.6604230  10.8392680
  96.2569990  22.2194180   9.9897220  97.1485050  22.9821560  10.9464500
  92.1036310  22.5430720   9.7986890  91.7636360  23.0205950  10.5553940
  91.3413630  22.0895840   9.4387990  96.3154080  23.6616310   3.8299440
  96.4366900  23.6202790   4.7785260  95.9302590  24.5240460   3.6746170
 100.2782450  21.4383710  11.8463130 100.2955190  21.8892360  12.6904980
 100.0298030  20.5389350  12.0596570  95.3275580  25.9717450   3.2282740
  94.7592480  25.5235700   2.6018650  96.0364580  26.3310230   2.6947890
 103.7053200  18.8515890  17.6849510 104.0298970  18.1205550  18.2107490
 103.7409710  18.5329530  16.7830500  90.4044760  29.8729470  17.1049470
  90.0199550  29.2323140  17.7032430  90.7156950  30.5765590  17.6744200
  96.5541900  26.7206010  12.5858090  96.9212030  26.2464580  13.3319430
  96.3646960  27.5947580  12.9266430  89.4182390  21.4649700   8.7151560
  89.1329310  21.1005370   9.5530180  89.3561250  20.7330160   8.1014700
  94.3441270  25.7614650  14.9042300  94.0398340  26.6406630  15.1292660
  95.2987730  25.8214440  14.9399740  92.8723060  29.9675640   5.5009150
  92.0985320  29.4273260   5.3407870  93.6017690  29.4482250   5.1626910
 103.6311040  28.9641000  11.2935540 104.3510160  29.4596290  10.9031650
 103.4292860  28.2858890  10.6489410  99.0920980  20.3578960   5.4364930
  98.2785590  19.8592130   5.3610240  98.8982930  21.1977210   5.0201280
  99.0129840  29.0350060  17.1804540  98.9467150  28.1145730  16.9262130
  98.3834980  29.1325500  17.8949180 101.8069370  24.7298610   3.7327090
 102.6948990  25.0415840   3.5578430 101.7774460  23.8570860   3.3407670
  92.9160460  29.6356020   9.1387960  93.4339130  28.8324280   9.0844850
  92.4644480  29.5735160   9.9804790  97.8029960  30.9022300   4.4115260
  98.1445660  31.6464530   3.9158580  96.9742670  31.2153420   4.7740090
  90.4005000  26.6017390  16.0513660  90.0419940  27.2671240  16.6387000
  90.1059560  25.7700940  16.4226280  93.6018120  27.0601630  18.9353210
  93.3018260  27.2058810  18.0381030  94.3729360  26.5006920  18.8426600
  98.9446570  31.8570630  16.9308340  98.9591110  30.9251590  16.7127250
  98.2371670  31.9430390  17.5698110 104.0783640  26.0410450   3.2006950
 103.9947360  26.4724670   2.3503390 104.7977830  26.5008800   3.6333770
 105.1557780  28.4977970  16.2776920 104.4305970  29.0906750  16.0806310
 105.6833240  28.4901510  15.4790290 105.1070890  32.8952710   5.9289080
 104.4647050  32.2408330   6.2032800 104.7201550  33.3007800   5.1529750
 100.6857370  30.2238140   9.7760770 101.0381190  29.6266270   9.1162140
  99.8019700  29.8982370   9.9469020  96.7720650  30.9835830   7.1831180
  97.4591780  31.5305040   7.5638770  95.9853070  31.5276560   7.2180790
  88.9113050  26.6008650   2.6748260  89.7807900  26.8833450   2.9584180
  88.4203370  27.4144520   2.5597070  96.0747860  27.9881860   6.7956540
  96.5310640  28.7987110   7.0216730  95.7236070  27.6705000   7.6275030
  98.3780470  33.4988200  14.0248840  99.0222690  33.7047580  14.7022260
  98.7409910  32.7376600  13.5719690  91.9759640  18.3319510   7.2679060
  91.8474270  18.3237410   8.2163980  91.1521660  18.6702600   6.9170070
  99.6512550  31.5020550  12.7426290 100.2934780  30.8013710  12.8558460
 100.1761900  32.2818990  12.5623180 103.4968270  31.7869170   2.4665430
 103.2705850  31.0699610   3.0590070 103.1064470  31.5381610   1.6287180
 101.4250170  32.3015450  15.9462350 101.7606410  32.8882140  16.6240270
 100.5050510  32.1708160  16.1760140  89.2784300  35.8136030   3.2409890
  89.6381940  36.4125370   2.5867160  89.1376640  36.3595920   4.0144920
  88.9753570  20.0910630  16.7285760  88.2612090  20.2907550  17.3338370
  89.3948610  19.3150200  17.1000560 103.0784520  29.7041110   4.1279590
 102.7906220  30.1653800   4.9157470 103.8736690  29.2438880   4.3963810
  97.2538750  32.3506780  19.1150410  96.9335620  31.6316020  19.6596100
  96.5797110  33.0261850  19.1886470  95.2952920  33.1967230   4.0583560
  95.2863020  33.9296920   3.4428070  94.3751280  32.9498810   4.1510520
  90.8959560  28.4182120   4.8030320  90.2887510  29.1581020   4.8125620
  91.3708910  28.5081480   3.9768520 100.4692350  22.5832940  14.4787210
 100.8373170  21.7628150  14.8066780  99.6090550  22.6434830  14.8942860
 103.8354380  21.5389880   5.2874770 103.2067540  21.6435550   4.5733000
 103.3406300  21.7586660   6.0768650  98.2812520  33.2595470   2.7208750
  98.3824500  33.0559460   1.7910730  97.3814260  33.0053750   2.9256530
  95.8038410  23.8175830   6.7032650  95.0954560  24.2862170   7.1446260
  96.0882890  23.1597840   7.3377840  97.4294340  25.2372530  14.7025180
  97.9279590  25.7118350  15.3677030  97.5717290  24.3136050  14.9095210
  99.8353840  20.5426490   8.1428440  99.7121620  20.5612620   7.1937950
 100.7838400  20.5905430   8.2626840  96.9230630  35.7781790   7.4156420
  97.1772130  35.7403180   6.4935790  95.9743110  35.6515120   7.4084670
  94.0073430  22.1260910   4.0783360  94.8563960  22.5631060   4.0123550
  93.6404700  22.4381170   4.9055420 104.6361200  21.4540490  15.5453570
 104.1334800  22.1945890  15.8847380 105.4517860  21.8424490  15.2290360
 102.9283210  26.6973670   8.9914930 101.9873350  26.7123900   9.1662620
 103.2427280  25.9109630   9.4375230  92.9064850  28.3793270   2.5518890
  93.6728120  28.2674630   3.1144320  92.9839540  27.6831240   1.8995660
  91.6011610  25.8118340   3.2351780  91.6815200  24.8645850   3.3469180
  92.4931360  26.1425220   3.3412440 104.9308790  33.8682520  10.6669190
 105.0556210  34.6913690  11.1393000 105.7974350  33.6573250  10.3193340
  92.4026320  35.9613730  10.3386320  93.1388800  35.4129190  10.6094890
  92.7867240  36.8269740  10.1992310  89.2871800  32.0287300   6.2127830
  88.3611580  32.2708440   6.2033240  89.7528230  32.8561560   6.0912580
  95.5128630  35.1344040   2.1611890  96.3057240  35.4232870   1.7093680
  94.9932980  34.7036210   1.4824370 100.2449230  31.2539670  19.4747310
  99.6387390  31.2771270  18.7343060  99.9403340  30.5222710  20.0114560
 101.6749600  34.9819960  18.0856720 102.6271350  34.8977980  18.0356960
 101.5277820  35.6461670  18.7590510 104.5658800  34.3614170   3.5848630
 104.2800310  33.9479310   2.7702810 104.3678350  35.2901880   3.4649150
  96.1820350  29.0404250  18.0043470  95.4166020  29.6089250  17.9198140
  96.3636310  28.7480460  17.1111700  99.2708760  29.4167480   2.6296230
  98.7218860  29.8636780   3.2738970  99.8928020  28.9116730   3.1533900
 103.3243700  30.7709580  18.5618490 104.0653170  31.1085340  18.0585950
 102.5616380  30.9401640  18.0088260  91.1605490  25.7762850  19.3658020
  91.2010830  25.4776720  20.2743250  92.0150990  26.1770460  19.2065540
  94.9383880  28.3758400   4.5261530  95.3600300  28.2098270   5.3692920
  95.0634720  27.5658630   4.0316670  93.1011300  24.3554950  17.3332510
  92.5707760  23.8645900  16.7055850  93.7699370  24.7839150  16.7990440
 101.9989360  28.8224410  17.0973700 102.4130380  28.9769490  17.9464120
 101.0640360  28.9479630  17.2599480 102.4711530  26.1620570  19.1012850
 103.0532300  25.4072890  19.0133330 102.6473300  26.6928010  18.3244330
  93.5883600  21.3217320  17.4129800  93.4940470  20.7038070  16.6880670
  93.0080990  22.0483610  17.1859710  96.3545040  19.8790560  14.4457190
  95.9062340  19.9014820  13.6002740  95.7210240  19.4809580  15.0427490
  96.7604590  28.7744890  15.0669630  97.1792700  29.6177620  14.8945870
  95.8413220  28.9116930  14.8376410  99.0968490  26.5061070  16.4507470
  99.2164700  25.9102210  17.1902310  99.9562490  26.5430760  16.0308770
 101.4356390  27.0598260  15.0269980 100.9091610  27.5840880  14.4235120
 101.7787730  27.6925650  15.6579710  94.6112010  35.0797900  16.1827360
  94.0733100  35.8043960  15.8636060  94.8645970  34.6028240  15.3924700
  95.8637260  23.0482420  17.7083290  96.4536950  22.7398270  18.3961110
  95.0457500  22.5762170  17.8643190 100.6830690  22.6648230  17.9416310
  99.9946210  22.0029770  17.8766300 101.4036710  22.2186500  18.3864770
 101.3131090  19.2599860   4.0006570 101.5933380  18.4167760   4.3565990
 100.5396820  19.4922970   4.5145320  97.4674220  36.3149110  16.4414010
  97.3932920  37.2184250  16.7486380  96.5653060  35.9961010  16.4136080
  95.8510510  20.4926870   2.4453770  95.5032510  19.8150860   1.8656220
  96.0523280  20.0316380   3.2597160  98.0159550  35.4807620   4.0640370
  98.9110340  35.8192590   4.0859130  98.0477180  34.7587030   3.4364650
  91.6555710  30.8534670   2.2927370  92.0930580  31.3964340   2.9484950
  92.1403440  30.0281620   2.3023710  88.8701510  33.6423700   9.7447630
  89.2004520  32.7744760   9.5126270  89.2992510  33.8482220  10.5752590
  93.4663430  31.9732710   7.4049600  93.1658970  31.8497680   8.3053510
  93.3600920  31.1141300   6.9965330 104.9953900  34.0111290  16.7706570
 104.3955890  34.0703850  16.0270490 105.1247800  33.0716270  16.9003420
 106.2355350  31.7529110   2.1076280 105.4048310  31.8205760   2.5783510
 106.4127180  32.6433230   1.8043140 105.6911810  28.4976590   4.6110480
 106.4530720  29.0673240   4.7170170 105.7066180  27.9303790   5.3818790
  89.1916150  27.0214520   8.8418140  88.5364990  26.7526160   8.1977840
  90.0294100  26.9119000   8.3920120 106.6971780  29.3526690   9.4552410
 107.0680610  28.5694010   9.0488380 107.3373710  30.0415790   9.2769710
 103.6805540  30.7363270  14.8682730 102.8665380  31.1660430  15.1308520
 104.0879740  31.3481680  14.2551780 105.7430980  28.7910960   1.7683000
 106.0179820  29.6989840   1.6402220 105.5541720  28.7273490   2.7044990
 102.1406590  21.8155810   3.0636630 102.5591470  21.6286790   2.2233290
 101.8342650  20.9634860   3.3739560 105.6396320  26.7279950   6.7612430
 105.2639920  25.9607880   6.3293720 104.9099440  27.1102650   7.2487360
  90.2292080  27.4067090  13.3821480  90.5965120  27.3194490  14.2617500
  89.6602900  26.6433640  13.2828340 105.0295940  25.8751470  16.3951950
 104.7982030  25.6464220  15.4949900 105.2900490  26.7951020  16.3496840
  89.7808080  24.3176180  17.2879900  88.8864130  24.2842940  17.6273610
  90.3205630  24.5162970  18.0531150 103.4684010  21.1007900  19.1731650
 104.3454190  21.1091300  19.5565650 103.4804850  20.3638740  18.5624000
  88.4054230  24.2313450   4.7843470  87.5018310  24.4943650   4.6095130
  88.8894850  24.5024620   4.0043430 104.9147280  24.9537440  10.0619670
 105.4384760  24.4600090   9.4309840 105.5006700  25.0887800  10.8067240
 105.0937000  25.0377310  13.5839220 104.1439710  25.0040850  13.6984210
 105.2750010  25.9477420  13.3488990  90.9481440  23.2878990   2.6937850
  91.6573140  22.8662210   2.2085130  90.2321380  23.3554220   2.0621200
 104.4047250  24.2110790   6.0012080 104.9006370  23.9781660   6.7860960
 104.2063320  23.3722630   5.5849720  90.2847790  18.5924510  11.6363120
  90.9323980  18.0421890  11.1958280  90.7049630  18.8467660  12.4578930
 105.8334410  22.8471740   8.5349760 105.7233690  22.6927780   9.4732030
 106.5942000  22.3192680   8.2925170 104.1800130  18.7865870  14.9932760
 104.8172350  19.4000010  15.3591950 104.3275020  18.8226530  14.0481990
 106.7224680  20.6779660   1.7755900 107.6473990  20.5460840   1.5674190
 106.7000470  20.7572480   2.7292350 106.7963170  21.4490320   4.4012610
 106.0014670  21.3835440   4.9305520 107.0006450  22.3840960   4.3897960
 103.7381590  35.4881870   8.3951000 104.3340660  35.1666440   7.7185420
 103.9959740  35.0153690   9.1864270  90.0379790  18.7480180  14.3788440
  89.6894610  19.2044000  15.1446620  89.7067490  17.8537310  14.4610870
  95.3450190  33.4759370  14.1451350  95.1041550  33.7433930  13.2581870
  96.2852830  33.6465100  14.2002210  97.5504610  19.9392060  17.9007860
  97.4893500  20.5313890  18.6503270  98.4904990  19.8318020  17.7558120
 100.1879170  19.5962120  17.5400150 100.8019580  19.9141410  16.8781230
 100.7328730  19.1110710  18.1596010 106.6054350  35.4953750  14.9461990
 106.1112630  35.8922620  14.2289120 105.9967640  34.8702960  15.3399270
  90.7100430  18.2756380  17.6539210  91.2583420  18.0944430  16.8905320
  90.7755740  17.4850490  18.1895520 100.9287210  18.1594260  13.8669440
 100.0547050  18.4929370  13.6642370 100.8197960  17.6867440  14.6921310
 101.8359190  20.3665130  15.2511160 101.5072550  19.5516890  14.8712890
 102.7841490  20.3234940  15.1276850 104.2893800  36.1377170  12.2248730
 103.8296770  36.8892980  11.8506750 103.6606260  35.4183640  12.1663530
  91.1144420  32.2320410  14.6147450  90.3878480  31.6125700  14.5473400
  91.1753570  32.6261020  13.7445530  94.7189520  34.4465410  11.3996860
  95.2354540  33.8352770  10.8745120  95.3686900  34.9494190  11.8907870
  97.4585020  35.3373900  12.2265840  97.7462830  35.0828200  11.3498850
  97.9708240  34.7851260  12.8171410  98.6762030  19.0764100  12.8062350
  97.8933820  19.5509600  13.0859110  98.3824960  18.1718930  12.6975530
 103.2283100  19.7787200  10.8511440 103.6691190  19.7232300  10.0033040
 102.9590690  20.6945210  10.9221620 105.0921670  19.4102440   8.8620260
 105.0310070  18.4663660   8.7151280 105.8713700  19.5182530   9.4073720
  89.3974420  35.5494800   7.8244210  89.2296460  34.9165480   8.5226100
  88.5308930  35.7554200   7.4738400  90.0202440  19.3811580   5.3276070
  90.7781800  19.4940460   4.7540100  89.5579610  20.2180780   5.2819500
  96.5616250  21.4950850   8.3178380  95.7490760  21.1207740   7.9774260
  97.0657890  20.7395930   8.6199570 101.0641230  18.1593300   9.5561450
 101.6670600  18.7313510  10.0309970 100.3234220  18.7232740   9.3335350
 104.2075830  18.5614860   4.8301730 104.4026460  19.4598310   5.0969160
 103.4205700  18.3301940   5.3234680  91.0037120  34.2428030   5.2694350
  90.4784740  34.6236060   4.5656310  90.9281700  34.8678800   5.9904060
  92.3927590  19.9075630   3.8678040  92.9220350  19.1205430   3.7385990
  93.0255910  20.5866820   4.1013570  94.5865430  19.6450770   6.9223430
  93.9568170  18.9438080   7.0893560  94.0470570  20.4054900   6.7056590
  97.5257380  36.2590000  19.5934040  98.4524690  36.0234270  19.6370000
  97.5107810  37.0862000  19.1120070 105.7602440  35.8015570   6.5908290
 105.9354630  35.1153310   5.9469210 105.0624010  36.3262620   6.1984960
  94.7120990  18.9234750  19.3575920  94.4305260  19.4268350  18.5936740
  95.0940690  18.1256500  18.9918050  93.6030090  36.1910410   4.1443600
  94.3348910  35.9069690   3.5967490  93.8623760  35.9523690   5.0342980
  92.7644880  32.3075140   4.1489930  92.1353760  32.7760240   4.6975760
  92.8792710  31.4624360   4.5836120 101.3136450  18.3388330  19.9356390
 101.2001900  18.6582940  20.8307910 102.1306190  18.7400840  19.6393670
 104.0934940  35.4859860  19.4175080 104.8860260  34.9909090  19.2101040
 104.3868090  36.1650000  20.0250690 100.2194600   7.5837310  65.3965090
 100.1388650   6.6691920  65.1256800  99.8059020   8.0804380  64.6904800
  98.3512640   9.3616330  67.2774360  97.5754740   8.8816770  67.5672930
  99.0025570   8.6821980  67.1030520  92.3678470   9.6736140  68.1550120
  91.5363350   9.4184850  68.5546630  92.9759450   9.7446910  68.8908040
 102.3720070  13.7676520  66.0573490 101.9101600  12.9963760  66.3860660
 103.1845620  13.7942590  66.5625940  92.3479730  13.7076230  68.3508140
  92.6507770  12.8173970  68.1718360  93.0923320  14.2646450  68.1230390
  90.7770420   4.6338030  61.9392510  89.8887120   4.9754000  61.8372390
  91.0611610   4.4338350  61.0473340  88.7403430   7.2343680  67.8232210
  89.3119540   6.4665880  67.8235850  88.7404970   7.5332440  66.9138820
  98.5983380  16.0534530  65.6777480  97.9794820  16.5092030  65.1071920
  99.4535160  16.2085990  65.2767180  97.7921630  12.0373520  67.2844520
  97.7229910  11.0963460  67.1233650  98.5541490  12.1274930  67.8567090
  89.9828300   2.6428040  69.6101140  89.8031140   1.7453790  69.8903900
  89.5808380   3.1899910  70.2848090  98.8226800   4.8443900  67.5113450
  99.1991620   3.9715780  67.3987120  98.7246310   5.1802600  66.6203890
  92.9531810   3.2169530  62.9730890  93.0598560   4.1173260  63.2799650
  92.0424170   3.1687500  62.6825540 102.6050920   2.3394340  64.4441790
 103.4260540   1.8490910  64.4867270 102.6385000   2.9292000  65.1973630
  90.6014970   5.1388540  68.2183480  91.2825080   5.4026910  68.8370880
  90.2863020   4.2989410  68.5521490  94.7939540   6.1855900  67.3056070
  95.3017760   6.6836870  67.9461090  95.3252780   5.4091100  67.1295430
 106.8950470   4.3561090  71.0085420 106.1902640   4.7442800  70.4900530
 107.1608390   5.0511380  71.6106350  99.4646730  10.9373770  63.0709390
  98.8464000  11.4023220  62.5072110  99.9769980  11.6301250  63.4878900
  94.3278490  10.4649640  69.7492990  93.9947870  11.0918560  70.3914060
  94.5045170  10.9911520  68.9694660 102.8412400   4.2794720  67.2169330
 102.1367970   4.5679610  67.7972440 103.2024560   5.0894830  66.8568890
  92.7590970   2.5364420  69.5789940  93.1007780   3.3806470  69.2843810
  91.8206780   2.6848160  69.6955280  93.5397590  12.4330440  71.5642170
  94.1571590  13.1081520  71.2826620  92.6790710  12.8418420  71.4729670
  88.8329930  11.6230300  60.4449020  88.4557910  12.1117400  59.7133920
  89.0903000  12.2955580  61.0755550 104.4575180  13.8969850  69.4796810
 103.7738700  14.5668960  69.4713480 104.9969470  14.0950500  68.7141670
 105.9099320   3.7249510  67.6078540 104.9624230   3.7588490  67.7393970
 106.2349310   4.5388460  67.9927900 101.9933920  15.7413980  68.1941990
 102.0061080  15.3376270  67.3264250 101.4409140  16.5161270  68.0903420
 103.2879340  12.4630200  63.2832160 103.1775670  11.5204530  63.4081580
 103.2847590  12.8245840  64.1694920 101.3919360  10.6443820  69.5224600
 101.8088150  10.4303930  68.6878060 102.1159180  10.9016610  70.0933220
  98.8299620   8.0895520  62.6394650  97.9028900   8.0232900  62.8683120
  98.9824440   9.0275650  62.5249890  98.8168700   4.3612520  59.6361810
  97.8772370   4.5226480  59.7214270  99.1351960   5.0798200  59.0897800
 105.3381460   9.0431040  69.6140840 104.5100090   9.1124130  69.1390970
 105.9331940   9.6285350  69.1456670 102.8596910   9.6515820  63.1429900
 102.2409330   9.3135370  62.4956200 102.8421360   9.0075580  63.8509090
 102.3023470   5.8300360  70.5595710 101.8894650   6.6554070  70.8135700
 101.5699420   5.2445400  70.3672070  94.4356260   8.6160260  65.4214380
  94.0313260   7.9037510  64.9260280  94.5219380   8.2713500  66.3102420
  94.9037960  12.3027820  67.5853590  94.6066250  11.6973290  66.9061370
  95.8537780  12.3405130  67.4742950  93.1484880   5.3903470  69.2013420
  93.6999470   5.4998810  68.4266670  93.6628390   5.7641070  69.9168650
 102.9923570  15.8759690  71.2476690 102.5154130  16.6831880  71.0549300
 102.3085360  15.2238020  71.4002900  93.9956390  12.0409510  74.2361390
  93.0984920  12.2649480  74.4834790  94.0209260  12.1644450  73.2872790
 101.0361610   8.8902630  60.1502650 101.4754890   8.0525060  60.0040470
 101.7490030   9.5232030  60.2366790  92.8227610   8.9122830  72.8118760
  92.6835380   9.7845630  73.1806160  91.9408970   8.5695640  72.6666700
  99.1456990  13.8298700  64.1183890  99.5852900  14.5723030  63.7039280
  99.0843880  14.0725270  65.0422850  94.6207960  14.8544530  75.0203910
  94.5923390  15.2587480  74.1532340  94.4572930  13.9254890  74.8575510
  91.1360890   7.5105240  62.9221030  91.0158490   8.2367330  62.3102300
  90.8261780   6.7408150  62.4448940  88.7746260  10.6820380  68.7289670
  88.8526680  10.8169150  67.7845390  89.3887940   9.9736270  68.9217790
  90.0193890  12.3820570  65.1395850  89.6121970  12.5235160  64.2849450
  90.9106900  12.0980730  64.9367060 105.9756030  12.8284480  73.4768090
 106.1019090  12.5896360  72.5585270 106.0177410  11.9969020  73.9490170
  99.8372770  16.5312480  72.0462900 100.3517440  16.4420490  72.8485330
  98.9941850  16.8772180  72.3390810 101.8127170  16.8167820  61.4746900
 101.6528310  16.5270760  62.3728730 101.6473880  16.0407950  60.9392130
  94.2915550  16.5966350  63.2518520  94.1158030  15.6801890  63.0386320
  93.4371290  16.9553640  63.4916320 101.5153300  14.3255380  60.0344900
 100.8218460  14.3232670  59.3747180 102.2576160  13.9014700  59.6039070
 101.0803230  15.9518090  64.1093390 101.5360180  15.1707470  64.4232010
 101.4195750  16.6624910  64.6534570 105.8280040   4.8816940  74.4417830
 105.2124310   5.3896610  73.9133290 105.5076460   3.9815270  74.3843770
  88.8305780  11.7234550  71.2684130  88.9936820  11.2539910  70.4503500
  89.2958230  11.2158110  71.9332970  97.8894360   3.7208830  71.9080020
  97.4273730   3.9291850  72.7199960  97.4872470   2.9068180  71.6050690
 102.8898870   4.9417780  73.0376680 102.0392460   4.6423530  73.3585750
 102.7300660   5.1859790  72.1260500  99.9848580   6.4419530  75.1375470
 100.3101990   5.6083280  74.7977700 100.7728910   6.9648050  75.2853800
  93.3938770   5.9773880  64.0325950  93.1679690   5.7611050  64.9372570
  92.6131300   6.4102340  63.6871920 100.6236530   5.9837250  62.6316600
 100.0245420   6.7073050  62.4480220 101.1716140   5.9214030  61.8493050
  95.8337980   6.8759460  74.6986220  95.7381580   5.9354190  74.5486620
  96.6769960   7.0974530  74.3034290  99.2301400   4.6200790  64.6619880
  99.6230970   4.9372990  63.8488570  99.5918250   3.7412670  64.7764400
  90.9648520   3.2873130  72.8520000  90.5711910   4.1348340  73.0592780
  90.2766920   2.6499500  73.0428640  88.4535800   5.1521710  58.0952800
  88.3710470   6.0952470  58.2367790  88.1018860   5.0096620  57.2165150
  99.8156540   7.2106540  68.7570660  99.0837660   7.7193350  69.1060760
  99.4180880   6.3936520  68.4559440  96.2533930   3.8860740  67.1623150
  96.2569990   3.4450690  66.3127690  97.1485050   4.2078070  67.2694970
  92.1036310   3.7687230  66.1217360  91.7636360   4.2462460  66.8784410
  91.3413630   3.3152350  65.7618460  96.3154080   4.8872820  60.1529910
  96.4366900   4.8459300  61.1015730  95.9302590   5.7496970  59.9976640
 100.2782450   2.6640220  68.1693600 100.2955190   3.1148870  69.0135450
 100.0298030   1.7645860  68.3827040  95.3275580   7.1973960  59.5513210
  94.7592480   6.7492210  58.9249120  96.0364580   7.5566740  59.0178360
  90.4044760  11.0985980  73.4279940  90.0199550  10.4579650  74.0262900
  90.7156950  11.8022100  73.9974670  96.5541900   7.9462520  68.9088560
  96.9212030   7.4721090  69.6549900  96.3646960   8.8204090  69.2496900
  89.4182390   2.6906210  65.0382030  89.1329310   2.3261880  65.8760650
  89.3561250   1.9586670  64.4245170  94.3441270   6.9871160  71.2272770
  94.0398340   7.8663140  71.4523130  95.2987730   7.0470950  71.2630210
  92.8723060  11.1932150  61.8239620  92.0985320  10.6529770  61.6638340
  93.6017690  10.6738760  61.4857380 103.6311040  10.1897510  67.6166010
 104.3510160  10.6852800  67.2262120 103.4292860   9.5115400  66.9719880
  99.0129840  10.2606570  73.5035010  98.9467150   9.3402240  73.2492600
  98.3834980  10.3582010  74.2179650 101.8069370   5.9555120  60.0557560
 102.6948990   6.2672350  59.8808900 101.7774460   5.0827370  59.6638140
  92.9160460  10.8612530  65.4618430  93.4339130  10.0580790  65.4075320
  92.4644480  10.7991670  66.3035260  97.8029960  12.1278810  60.7345730
  98.1445660  12.8721040  60.2389050  96.9742670  12.4409930  61.0970560
  90.4005000   7.8273900  72.3744130  90.0419940   8.4927750  72.9617470
  90.1059560   6.9957450  72.7456750  93.6018120   8.2858140  75.2583680
  93.3018260   8.4315320  74.3611500  94.3729360   7.7263430  75.1657070
  98.9446570  13.0827140  73.2538810  98.9591110  12.1508100  73.0357720
  98.2371670  13.1686900  73.8928580 104.0783640   7.2666960  59.5237420
 103.9947360   7.6981180  58.6733860 104.7977830   7.7265310  59.9564240
 105.1557780   9.7234480  72.6007390 104.4305970  10.3163260  72.4036780
 105.6833240   9.7158020  71.8020760 105.1070890  14.1209220  62.2519550
 104.4647050  13.4664840  62.5263270 104.7201550  14.5264310  61.4760220
 100.6857370  11.4494650  66.0991240 101.0381190  10.8522780  65.4392610
  99.8019700  11.1238880  66.2699490  96.7720650  12.2092340  63.5061650
  97.4591780  12.7561550  63.8869240  95.9853070  12.7533070  63.5411260
  88.9113050   7.8265160  58.9978730  89.7807900   8.1089960  59.2814650
  88.4203370   8.6401030  58.8827540  96.0747860   9.2138370  63.1187010
  96.5310640  10.0243620  63.3447200  95.7236070   8.8961510  63.9505500
  98.3780470  14.7244710  70.3479310  99.0222690  14.9304090  71.0252730
  98.7409910  13.9633110  69.8950160  99.6512550  12.7277060  69.0656760
 100.2934780  12.0270220  69.1788930 100.1761900  13.5075500  68.8853650
 103.4968270  13.0125680  58.7895900 103.2705850  12.2956120  59.3820540
 103.1064470  12.7638120  57.9517650 101.4250170  13.5271960  72.2692820
 101.7606410  14.1138650  72.9470740 100.5050510  13.3964670  72.4990610
  89.2784300  17.0392540  59.5640360  89.6381940  17.6381880  58.9097630
  89.1376640  17.5852430  60.3375390 103.0784520  10.9297620  60.4510060
 102.7906220  11.3910310  61.2387940 103.8736690  10.4695390  60.7194280
  89.2626160  15.3047400  74.0382760  89.3717280  14.3642140  73.8978150
  88.6106720  15.5702150  73.3896490  97.2538750  13.5763290  75.4380880
  96.9335620  12.8572530  75.9826570  96.5797110  14.2518360  75.5116940
  95.2952920  14.4223740  60.3814030  95.2863020  15.1553430  59.7658540
  94.3751280  14.1755320  60.4740990  90.8959560   9.6438630  61.1260790
  90.2887510  10.3837530  61.1356090  91.3708910   9.7337990  60.2998990
 100.4692350   3.8089450  70.8017680 100.8373170   2.9884660  71.1297250
  99.6090550   3.8691340  71.2173330 103.8354380   2.7646390  61.6105240
 103.2067540   2.8692060  60.8963470 103.3406300   2.9843170  62.3999120
  98.2812520  14.4851980  59.0439220  98.3824500  14.2815970  58.1141200
  97.3814260  14.2310260  59.2487000  95.8038410   5.0432340  63.0263120
  95.0954560   5.5118680  63.4676730  96.0882890   4.3854350  63.6608310
  97.4294340   6.4629040  71.0255650  97.9279590   6.9374860  71.6907500
  97.5717290   5.5392560  71.2325680  99.8353840   1.7683000  64.4658910
  99.7121620   1.7869130  63.5168420 100.7838400   1.8161940  64.5857310
  96.9230630  17.0038300  63.7386890  97.1772130  16.9659690  62.8166260
  95.9743110  16.8771630  63.7315140  94.0073430   3.3517420  60.4013830
  94.8563960   3.7887570  60.3354020  93.6404700   3.6637680  61.2285890
 104.6361200   2.6797000  71.8684040 104.1334800   3.4202400  72.2077850
 105.4517860   3.0681000  71.5520830 102.9283210   7.9230180  65.3145400
 101.9873350   7.9380410  65.4893090 103.2427280   7.1366140  65.7605700
  92.9064850   9.6049780  58.8749360  93.6728120   9.4931140  59.4374790
  92.9839540   8.9087750  58.2226130  91.6011610   7.0374850  59.5582250
  91.6815200   6.0902360  59.6699650  92.4931360   7.3681730  59.6642910
 104.9308790  15.0939030  66.9899660 105.0556210  15.9170200  67.4623470
 105.7974350  14.8829760  66.6423810  92.4026320  17.1870240  66.6616790
  93.1388800  16.6385700  66.9325360  92.7867240  18.0526250  66.5222780
  89.2871800  13.2543810  62.5358300  88.3611580  13.4964950  62.5263710
  89.7528230  14.0818070  62.4143050  95.5128630  16.3600550  58.4842360
  96.3057240  16.6489380  58.0324150  94.9932980  15.9292720  57.8054840
 101.6749600  16.2076470  74.4087190 102.6271350  16.1234490  74.3587430
 101.5277820  16.8718180  75.0820980 104.5658800  15.5870680  59.9079100
 104.2800310  15.1735820  59.0933280 104.3678350  16.5158390  59.7879620
  89.1282410   8.8589770  74.7938420  89.6321430   8.2797050  75.3654650
  88.3889830   9.1430000  75.3314790  96.0306030  11.5803960  58.3484710
  95.9256670  10.9656310  59.0746090  95.8630250  11.0569850  57.5647720
  96.1820350  10.2660760  74.3273940  95.4166020  10.8345760  74.2428610
  96.3636310   9.9736970  73.4342170  99.2708760  10.6423990  58.9526700
  98.7218860  11.0893290  59.5969440  99.8928020  10.1373240  59.4764370
 103.3243700  11.9966090  74.8848960 104.0653170  12.3341850  74.3816420
 102.5616380  12.1658150  74.3318730  94.9383880   9.6014910  60.8492000
  95.3600300   9.4354780  61.6923390  95.0634720   8.7915140  60.3547140
  93.1011300   5.5811460  73.6562980  92.5707760   5.0902410  73.0286320
  93.7699370   6.0095660  73.1220910  97.4511520   8.6252520  58.0969100
  97.9717180   7.9101540  57.7310250  98.0979920   9.2638390  58.3969610
 101.9989360  10.0480920  73.4204170 102.4130380  10.2026000  74.2694590
 101.0640360  10.1736140  73.5829950 102.4711530   7.3877080  75.4243320
 103.0532300   6.6329400  75.3363800 102.6473300   7.9184520  74.6474800
  93.5883600   2.5473830  73.7360270  93.4940470   1.9294580  73.0111140
  93.0080990   3.2740120  73.5090180  96.7604590  10.0001400  71.3900100
  97.1792700  10.8434130  71.2176340  95.8413220  10.1373440  71.1606880
  99.0968490   7.7317580  72.7737940  99.2164700   7.1358720  73.5132780
  99.9562490   7.7687270  72.3539240 101.4356390   8.2854770  71.3500450
 100.9091610   8.8097390  70.7465590 101.7787730   8.9182160  71.9810180
  93.8342780   5.6748140  57.7950160  93.6331840   4.8115500  58.1563500
  93.6634830   5.5881500  56.8571760  94.6112010  16.3054410  72.5057830
  94.0733100  17.0300470  72.1866530  94.8645970  15.8284750  71.7155170
  95.8637260   4.2738930  74.0313760  96.4536950   3.9654780  74.7191580
  95.0457500   3.8018680  74.1873660 100.6830690   3.8904740  74.2646780
  99.9946210   3.2286280  74.1996770 101.4036710   3.4443010  74.7095240
  92.6325580   2.7748760  57.7828040  92.9351480   2.7816190  56.8747190
  93.3720170   2.4246620  58.2795700  97.4674220  17.5405620  72.7644480
  97.3932920  18.4440760  73.0716850  96.5653060  17.2217520  72.7366550
  98.0159550  16.7064130  60.3870840  98.9110340  17.0449100  60.4089600
  98.0477180  15.9843540  59.7595120  91.6555710  12.0791180  58.6157840
  92.0930580  12.6220850  59.2715420  92.1403440  11.2538130  58.6254180
  88.8701510  14.8680210  66.0678100  89.2004520  14.0001270  65.8356740
  89.2992510  15.0738730  66.8983060  93.4663430  13.1989220  63.7280070
  93.1658970  13.0754190  64.6283980  93.3600920  12.3397810  63.3195800
  89.3591720  15.7350800  68.8059730  88.9222710  15.9151600  69.6383880
  89.9269400  16.4925420  68.6641450 104.9953900  15.2367800  73.0937040
 104.3955890  15.2960360  72.3500960 105.1247800  14.2972780  73.2233890
 106.2355350  12.9785620  58.4306750 105.4048310  13.0462270  58.9013980
 106.4127180  13.8689740  58.1273610 105.6911810   9.7233100  60.9340950
 106.4530720  10.2929750  61.0400640 105.7066180   9.1560300  61.7049260
  89.1916150   8.2471030  65.1648610  88.5364990   7.9782670  64.5208310
  90.0294100   8.1375510  64.7150590 106.6971780  10.5783200  65.7782880
 107.0680610   9.7950520  65.3718850 107.3373710  11.2672300  65.6000180
 103.6805540  11.9619780  71.1913200 102.8665380  12.3916940  71.4538990
 104.0879740  12.5738190  70.5782250 105.7430980  10.0167470  58.0913470
 106.0179820  10.9246350  57.9632690 105.5541720   9.9530000  59.0275460
 102.1406590   3.0412320  59.3867100 102.5591470   2.8543300  58.5463760
 101.8342650   2.1891370  59.6970030 105.6396320   7.9536460  63.0842900
 105.2639920   7.1864390  62.6524190 104.9099440   8.3359160  63.5717830
  90.2292080   8.6323600  69.7051950  90.5965120   8.5451000  70.5847970
  89.6602900   7.8690150  69.6058810 105.0295940   7.1007980  72.7182420
 104.7982030   6.8720730  71.8180370 105.2900490   8.0207530  72.6727310
  89.7808080   5.5432690  73.6110370  88.8864130   5.5099450  73.9504080
  90.3205630   5.7419480  74.3761620 103.4684010   2.3264410  75.4962120
 104.3454190   2.3347810  75.8796120 103.4804850   1.5895250  74.8854470
  88.4054230   5.4569960  61.1073940  87.5018310   5.7200160  60.9325600
  88.8894850   5.7281130  60.3273900 104.9147280   6.1793950  66.3850140
 105.4384760   5.6856600  65.7540310 105.5006700   6.3144310  67.1297710
 105.0937000   6.2633820  69.9069690 104.1439710   6.2297360  70.0214680
 105.2750010   7.1733930  69.6719460  90.9481440   4.5135500  59.0168320
  91.6573140   4.0918720  58.5315600  90.2321380   4.5810730  58.3851670
 104.4047250   5.4367300  62.3242550 104.9006370   5.2038170  63.1091430
 104.2063320   4.5979140  61.9080190 105.8334410   4.0728250  64.8580230
 105.7233690   3.9184290  65.7962500 106.5942000   3.5449190  64.6155640
 106.7224680   1.9036170  58.0986370 107.6473990   1.7717350  57.8904660
 106.7000470   1.9828990  59.0522820 106.7963170   2.6746830  60.7243080
 106.0014670   2.6091950  61.2535990 107.0006450   3.6097470  60.7128430
 103.7381590  16.7138380  64.7181470 104.3340660  16.3922950  64.0415890
 103.9959740  16.2410200  65.5094740  91.6444160  13.1456290  74.8672100
  91.6013790  12.7749200  75.7486560  91.7755170  14.0833860  75.0073920
  95.3450190  14.7015880  70.4681820  95.1041550  14.9690440  69.5812340
  96.2852830  14.8721610  70.5232680 106.6054350  16.7210260  71.2692460
 106.1112630  17.1179130  70.5519590 105.9967640  16.0959470  71.6629740
  91.4832190  16.0918540  71.9869880  90.8892510  15.9603240  72.7259920
  91.4756030  15.2556680  71.5211980 104.2893800  17.3633680  68.5479200
 103.8296770  18.1149490  68.1737220 103.6606260  16.6440150  68.4894000
  91.1144420  13.4576920  70.9377920  90.3878480  12.8382210  70.8703870
  91.1753570  13.8517530  70.0676000  94.7189520  15.6721920  67.7227330
  95.2354540  15.0609280  67.1975590  95.3686900  16.1750700  68.2138340
  97.4585020  16.5630410  68.5496310  97.7462830  16.3084710  67.6729320
  97.9708240  16.0107770  69.1401880  89.3974420  16.7751310  64.1474680
  89.2296460  16.1421990  64.8456570  88.5308930  16.9810710  63.7968870
  96.5616250   2.7207360  64.6408850  95.7490760   2.3464250  64.3004730
  97.0657890   1.9652440  64.9430040  91.0037120  15.4684540  61.5924820
  90.4784740  15.8492570  60.8886780  90.9281700  16.0935310  62.3134530
  97.5257380  17.4846510  75.9164510  98.4524690  17.2490780  75.9600470
  97.5107810  18.3118510  75.4350540 105.7602440  17.0272080  62.9138760
 105.9354630  16.3409820  62.2699680 105.0624010  17.5519130  62.5215430
  93.6030090  17.4166920  60.4674070  94.3348910  17.1326200  59.9197960
  93.8623760  17.1780200  61.3573450  92.7644880  13.5331650  60.4720400
  92.1353760  14.0016750  61.0206230  92.8792710  12.6880870  60.9066590
 100.2194600   7.5837310  46.6221600 100.1388650   6.6691920  46.3513310
  99.8059020   8.0804380  45.9161310  98.3512640   9.3616330  48.5030870
  97.5754740   8.8816770  48.7929440  99.0025570   8.6821980  48.3287030
  92.3678470   9.6736140  49.3806630  91.5363350   9.4184850  49.7803140
  92.9759450   9.7446910  50.1164550 102.3720070  13.7676520  47.2830000
 101.9101600  12.9963760  47.6117170 103.1845620  13.7942590  47.7882450
  92.3479730  13.7076230  49.5764650  92.6507770  12.8173970  49.3974870
  93.0923320  14.2646450  49.3486900  90.7770420   4.6338030  43.1649020
  89.8887120   4.9754000  43.0628900  91.0611610   4.4338350  42.2729850
  88.7403430   7.2343680  49.0488720  89.3119540   6.4665880  49.0492360
  88.7404970   7.5332440  48.1395330  98.5983380  16.0534530  46.9033990
  97.9794820  16.5092030  46.3328430  99.4535160  16.2085990  46.5023690
  97.7921630  12.0373520  48.5101030  97.7229910  11.0963460  48.3490160
  98.5541490  12.1274930  49.0823600  89.9828300   2.6428040  50.8357650
  89.8031140   1.7453790  51.1160410  89.5808380   3.1899910  51.5104600
  98.8226800   4.8443900  48.7369960  99.1991620   3.9715780  48.6243630
  98.7246310   5.1802600  47.8460400  92.9531810   3.2169530  44.1987400
  93.0598560   4.1173260  44.5056160  92.0424170   3.1687500  43.9082050
 102.6050920   2.3394340  45.6698300 103.4260540   1.8490910  45.7123780
 102.6385000   2.9292000  46.4230140  90.6014970   5.1388540  49.4439990
  91.2825080   5.4026910  50.0627390  90.2863020   4.2989410  49.7778000
  94.7939540   6.1855900  48.5312580  95.3017760   6.6836870  49.1717600
  95.3252780   5.4091100  48.3551940 106.8950470   4.3561090  52.2341930
 106.1902640   4.7442800  51.7157040 107.1608390   5.0511380  52.8362860
  99.4646730  10.9373770  44.2965900  98.8464000  11.4023220  43.7328620
  99.9769980  11.6301250  44.7135410  94.3278490  10.4649640  50.9749500
  93.9947870  11.0918560  51.6170570  94.5045170  10.9911520  50.1951170
 102.8412400   4.2794720  48.4425840 102.1367970   4.5679610  49.0228950
 103.2024560   5.0894830  48.0825400  92.7590970   2.5364420  50.8046450
  93.1007780   3.3806470  50.5100320  91.8206780   2.6848160  50.9211790
  93.5397590  12.4330440  52.7898680  94.1571590  13.1081520  52.5083130
  92.6790710  12.8418420  52.6986180  88.8329930  11.6230300  41.6705530
  88.4557910  12.1117400  40.9390430  89.0903000  12.2955580  42.3012060
 104.4575180  13.8969850  50.7053320 103.7738700  14.5668960  50.6969990
 104.9969470  14.0950500  49.9398180 105.9099320   3.7249510  48.8335050
 104.9624230   3.7588490  48.9650480 106.2349310   4.5388460  49.2184410
 101.9933920  15.7413980  49.4198500 102.0061080  15.3376270  48.5520760
 101.4409140  16.5161270  49.3159930 103.2879340  12.4630200  44.5088670
 103.1775670  11.5204530  44.6338090 103.2847590  12.8245840  45.3951430
 101.3919360  10.6443820  50.7481110 101.8088150  10.4303930  49.9134570
 102.1159180  10.9016610  51.3189730  98.8299620   8.0895520  43.8651160
  97.9028900   8.0232900  44.0939630  98.9824440   9.0275650  43.7506400
  98.8168700   4.3612520  40.8618320  97.8772370   4.5226480  40.9470780
  99.1351960   5.0798200  40.3154310 105.3381460   9.0431040  50.8397350
 104.5100090   9.1124130  50.3647480 105.9331940   9.6285350  50.3713180
 102.8596910   9.6515820  44.3686410 102.2409330   9.3135370  43.7212710
 102.8421360   9.0075580  45.0765600 102.3023470   5.8300360  51.7852220
 101.8894650   6.6554070  52.0392210 101.5699420   5.2445400  51.5928580
  94.4356260   8.6160260  46.6470890  94.0313260   7.9037510  46.1516790
  94.5219380   8.2713500  47.5358930  94.9037960  12.3027820  48.8110100
  94.6066250  11.6973290  48.1317880  95.8537780  12.3405130  48.6999460
  93.1484880   5.3903470  50.4269930  93.6999470   5.4998810  49.6523180
  93.6628390   5.7641070  51.1425160 102.9923570  15.8759690  52.4733200
 102.5154130  16.6831880  52.2805810 102.3085360  15.2238020  52.6259410
  93.9956390  12.0409510  55.4617900  93.0984920  12.2649480  55.7091300
  94.0209260  12.1644450  54.5129300 101.0361610   8.8902630  41.3759160
 101.4754890   8.0525060  41.2296980 101.7490030   9.5232030  41.4623300
  92.8227610   8.9122830  54.0375270  92.6835380   9.7845630  54.4062670
  91.9408970   8.5695640  53.8923210  99.1456990  13.8298700  45.3440400
  99.5852900  14.5723030  44.9295790  99.0843880  14.0725270  46.2679360
  94.6207960  14.8544530  56.2460420  94.5923390  15.2587480  55.3788850
  94.4572930  13.9254890  56.0832020  91.1360890   7.5105240  44.1477540
  91.0158490   8.2367330  43.5358810  90.8261780   6.7408150  43.6705450
 106.5722780  15.6371630  57.5424590 107.0482500  16.1154520  58.2213670
 107.1929940  15.5689120  56.8170090  88.7746260  10.6820380  49.9546180
  88.8526680  10.8169150  49.0101900  89.3887940   9.9736270  50.1474300
  90.0193890  12.3820570  46.3652360  89.6121970  12.5235160  45.5105960
  90.9106900  12.0980730  46.1623570 105.9756030  12.8284480  54.7024600
 106.1019090  12.5896360  53.7841780 106.0177410  11.9969020  55.1746680
  99.8372770  16.5312480  53.2719410 100.3517440  16.4420490  54.0741840
  98.9941850  16.8772180  53.5647320 101.8127170  16.8167820  42.7003410
 101.6528310  16.5270760  43.5985240 101.6473880  16.0407950  42.1648640
  94.2915550  16.5966350  44.4775030  94.1158030  15.6801890  44.2642830
  93.4371290  16.9553640  44.7172830 101.5153300  14.3255380  41.2601410
 100.8218460  14.3232670  40.6003690 102.2576160  13.9014700  40.8295580
 101.0803230  15.9518090  45.3349900 101.5360180  15.1707470  45.6488520
 101.4195750  16.6624910  45.8791080 105.8280040   4.8816940  55.6674340
 105.2124310   5.3896610  55.1389800 105.5076460   3.9815270  55.6100280
  88.8305780  11.7234550  52.4940640  88.9936820  11.2539910  51.6760010
  89.2958230  11.2158110  53.1589480  97.8894360   3.7208830  53.1336530
  97.4273730   3.9291850  53.9456470  97.4872470   2.9068180  52.8307200
 102.8898870   4.9417780  54.2633190 102.0392460   4.6423530  54.5842260
 102.7300660   5.1859790  53.3517010  99.9848580   6.4419530  56.3631980
 100.3101990   5.6083280  56.0234210 100.7728910   6.9648050  56.5110310
  93.3938770   5.9773880  45.2582460  93.1679690   5.7611050  46.1629080
  92.6131300   6.4102340  44.9128430 100.6236530   5.9837250  43.8573110
 100.0245420   6.7073050  43.6736730 101.1716140   5.9214030  43.0749560
  95.8337980   6.8759460  55.9242730  95.7381580   5.9354190  55.7743130
  96.6769960   7.0974530  55.5290800  99.2301400   4.6200790  45.8876390
  99.6230970   4.9372990  45.0745080  99.5918250   3.7412670  46.0020910
  90.9648520   3.2873130  54.0776510  90.5711910   4.1348340  54.2849290
  90.2766920   2.6499500  54.2685150  97.5393570   3.3708100  57.1473250
  96.8491890   3.1780300  57.7819340  98.2825870   3.6542740  57.6797550
  88.4535800   5.1521710  39.3209310  88.3710470   6.0952470  39.4624300
  88.1018860   5.0096620  38.4421660  99.8156540   7.2106540  49.9827170
  99.0837660   7.7193350  50.3317270  99.4180880   6.3936520  49.6815950
  96.2533930   3.8860740  48.3879660  96.2569990   3.4450690  47.5384200
  97.1485050   4.2078070  48.4951480  92.1036310   3.7687230  47.3473870
  91.7636360   4.2462460  48.1040920  91.3413630   3.3152350  46.9874970
  96.3154080   4.8872820  41.3786420  96.4366900   4.8459300  42.3272240
  95.9302590   5.7496970  41.2233150 100.2782450   2.6640220  49.3950110
 100.2955190   3.1148870  50.2391960 100.0298030   1.7645860  49.6083550
  95.3275580   7.1973960  40.7769720  94.7592480   6.7492210  40.1505630
  96.0364580   7.5566740  40.2434870  90.4044760  11.0985980  54.6536450
  90.0199550  10.4579650  55.2519410  90.7156950  11.8022100  55.2231180
  96.5541900   7.9462520  50.1345070  96.9212030   7.4721090  50.8806410
  96.3646960   8.8204090  50.4753410  89.4182390   2.6906210  46.2638540
  89.1329310   2.3261880  47.1017160  89.3561250   1.9586670  45.6501680
  94.3441270   6.9871160  52.4529280  94.0398340   7.8663140  52.6779640
  95.2987730   7.0470950  52.4886720  92.8723060  11.1932150  43.0496130
  92.0985320  10.6529770  42.8894850  93.6017690  10.6738760  42.7113890
 103.6311040  10.1897510  48.8422520 104.3510160  10.6852800  48.4518630
 103.4292860   9.5115400  48.1976390  99.0129840  10.2606570  54.7291520
  98.9467150   9.3402240  54.4749110  98.3834980  10.3582010  55.4436160
 101.8069370   5.9555120  41.2814070 102.6948990   6.2672350  41.1065410
 101.7774460   5.0827370  40.8894650  92.9160460  10.8612530  46.6874940
  93.4339130  10.0580790  46.6331830  92.4644480  10.7991670  47.5291770
  97.8029960  12.1278810  41.9602240  98.1445660  12.8721040  41.4645560
  96.9742670  12.4409930  42.3227070  90.4005000   7.8273900  53.6000640
  90.0419940   8.4927750  54.1873980  90.1059560   6.9957450  53.9713260
  93.6018120   8.2858140  56.4840190  93.3018260   8.4315320  55.5868010
  94.3729360   7.7263430  56.3913580  98.9446570  13.0827140  54.4795320
  98.9591110  12.1508100  54.2614230  98.2371670  13.1686900  55.1185090
 104.0783640   7.2666960  40.7493930 103.9947360   7.6981180  39.8990370
 104.7977830   7.7265310  41.1820750 105.1557780   9.7234480  53.8263900
 104.4305970  10.3163260  53.6293290 105.6833240   9.7158020  53.0277270
 105.1070890  14.1209220  43.4776060 104.4647050  13.4664840  43.7519780
 104.7201550  14.5264310  42.7016730 100.6857370  11.4494650  47.3247750
 101.0381190  10.8522780  46.6649120  99.8019700  11.1238880  47.4956000
  96.7720650  12.2092340  44.7318160  97.4591780  12.7561550  45.1125750
  95.9853070  12.7533070  44.7667770  88.9113050   7.8265160  40.2235240
  89.7807900   8.1089960  40.5071160  88.4203370   8.6401030  40.1084050
  96.0747860   9.2138370  44.3443520  96.5310640  10.0243620  44.5703710
  95.7236070   8.8961510  45.1762010  98.3780470  14.7244710  51.5735820
  99.0222690  14.9304090  52.2509240  98.7409910  13.9633110  51.1206670
  99.6512550  12.7277060  50.2913270 100.2934780  12.0270220  50.4045440
 100.1761900  13.5075500  50.1110160 103.4968270  13.0125680  40.0152410
 103.2705850  12.2956120  40.6077050 103.1064470  12.7638120  39.1774160
 101.4250170  13.5271960  53.4949330 101.7606410  14.1138650  54.1727250
 100.5050510  13.3964670  53.7247120  89.2784300  17.0392540  40.7896870
  89.6381940  17.6381880  40.1354140  89.1376640  17.5852430  41.5631900
 103.0784520  10.9297620  41.6766570 102.7906220  11.3910310  42.4644450
 103.8736690  10.4695390  41.9450790  89.2626160  15.3047400  55.2639270
  89.3717280  14.3642140  55.1234660  88.6106720  15.5702150  54.6153000
  97.2538750  13.5763290  56.6637390  96.9335620  12.8572530  57.2083080
  96.5797110  14.2518360  56.7373450  95.2952920  14.4223740  41.6070540
  95.2863020  15.1553430  40.9915050  94.3751280  14.1755320  41.6997500
  90.8959560   9.6438630  42.3517300  90.2887510  10.3837530  42.3612600
  91.3708910   9.7337990  41.5255500 100.4692350   3.8089450  52.0274190
 100.8373170   2.9884660  52.3553760  99.6090550   3.8691340  52.4429840
 103.8354380   2.7646390  42.8361750 103.2067540   2.8692060  42.1219980
 103.3406300   2.9843170  43.6255630  98.2812520  14.4851980  40.2695730
  98.3824500  14.2815970  39.3397710  97.3814260  14.2310260  40.4743510
  95.8038410   5.0432340  44.2519630  95.0954560   5.5118680  44.6933240
  96.0882890   4.3854350  44.8864820  97.4294340   6.4629040  52.2512160
  97.9279590   6.9374860  52.9164010  97.5717290   5.5392560  52.4582190
  99.8353840   1.7683000  45.6915420  99.7121620   1.7869130  44.7424930
 100.7838400   1.8161940  45.8113820  96.9230630  17.0038300  44.9643400
  97.1772130  16.9659690  44.0422770  95.9743110  16.8771630  44.9571650
  94.0073430   3.3517420  41.6270340  94.8563960   3.7887570  41.5610530
  93.6404700   3.6637680  42.4542400 104.6361200   2.6797000  53.0940550
 104.1334800   3.4202400  53.4334360 105.4517860   3.0681000  52.7777340
 102.9283210   7.9230180  46.5401910 101.9873350   7.9380410  46.7149600
 103.2427280   7.1366140  46.9862210  92.9064850   9.6049780  40.1005870
  93.6728120   9.4931140  40.6631300  92.9839540   8.9087750  39.4482640
  91.6011610   7.0374850  40.7838760  91.6815200   6.0902360  40.8956160
  92.4931360   7.3681730  40.8899420 104.9308790  15.0939030  48.2156170
 105.0556210  15.9170200  48.6879980 105.7974350  14.8829760  47.8680320
  92.4026320  17.1870240  47.8873300  93.1388800  16.6385700  48.1581870
  92.7867240  18.0526250  47.7479290  89.2871800  13.2543810  43.7614810
  88.3611580  13.4964950  43.7520220  89.7528230  14.0818070  43.6399560
  91.4084600  16.3716310  57.0758880  92.2097330  16.6928360  57.4894280
  90.8936420  16.0111890  57.7978790  95.5128630  16.3600550  39.7098870
  96.3057240  16.6489380  39.2580660  94.9932980  15.9292720  39.0311350
 100.2449230  12.4796180  57.0234290  99.6387390  12.5027780  56.2830040
  99.9403340  11.7479220  57.5601540 101.6749600  16.2076470  55.6343700
 102.6271350  16.1234490  55.5843940 101.5277820  16.8718180  56.3077490
 104.5658800  15.5870680  41.1335610 104.2800310  15.1735820  40.3189790
 104.3678350  16.5158390  41.0136130  89.1282410   8.8589770  56.0194930
  89.6321430   8.2797050  56.5911160  88.3889830   9.1430000  56.5571300
  96.0306030  11.5803960  39.5741220  95.9256670  10.9656310  40.3002600
  95.8630250  11.0569850  38.7904230  96.1820350  10.2660760  55.5530450
  95.4166020  10.8345760  55.4685120  96.3636310   9.9736970  54.6598680
  99.2708760  10.6423990  40.1783210  98.7218860  11.0893290  40.8225950
  99.8928020  10.1373240  40.7020880 103.3243700  11.9966090  56.1105470
 104.0653170  12.3341850  55.6072930 102.5616380  12.1658150  55.5575240
  91.1605490   7.0019360  56.9145000  91.2010830   6.7033230  57.8230230
  92.0150990   7.4026970  56.7552520  94.9383880   9.6014910  42.0748510
  95.3600300   9.4354780  42.9179900  95.0634720   8.7915140  41.5803650
  93.1011300   5.5811460  54.8819490  92.5707760   5.0902410  54.2542830
  93.7699370   6.0095660  54.3477420  97.4511520   8.6252520  39.3225610
  97.9717180   7.9101540  38.9566760  98.0979920   9.2638390  39.6226120
 101.9989360  10.0480920  54.6460680 102.4130380  10.2026000  55.4951100
 101.0640360  10.1736140  54.8086460 102.4711530   7.3877080  56.6499830
 103.0532300   6.6329400  56.5620310 102.6473300   7.9184520  55.8731310
  93.5883600   2.5473830  54.9616780  93.4940470   1.9294580  54.2367650
  93.0080990   3.2740120  54.7346690  96.7604590  10.0001400  52.6156610
  97.1792700  10.8434130  52.4432850  95.8413220  10.1373440  52.3863390
  99.0968490   7.7317580  53.9994450  99.2164700   7.1358720  54.7389290
  99.9562490   7.7687270  53.5795750 101.4356390   8.2854770  52.5756960
 100.9091610   8.8097390  51.9722100 101.7787730   8.9182160  53.2066690
  93.8342780   5.6748140  39.0206670  93.6331840   4.8115500  39.3820010
  93.6634830   5.5881500  38.0828270  94.6112010  16.3054410  53.7314340
  94.0733100  17.0300470  53.4123040  94.8645970  15.8284750  52.9411680
  95.8637260   4.2738930  55.2570270  96.4536950   3.9654780  55.9448090
  95.0457500   3.8018680  55.4130170 100.6830690   3.8904740  55.4903290
  99.9946210   3.2286280  55.4253280 101.4036710   3.4443010  55.9351750
  92.6325580   2.7748760  39.0084550  92.9351480   2.7816190  38.1003700
  93.3720170   2.4246620  39.5052210  97.4674220  17.5405620  53.9900990
  97.3932920  18.4440760  54.2973360  96.5653060  17.2217520  53.9623060
  98.0159550  16.7064130  41.6127350  98.9110340  17.0449100  41.6346110
  98.0477180  15.9843540  40.9851630  91.6555710  12.0791180  39.8414350
  92.0930580  12.6220850  40.4971930  92.1403440  11.2538130  39.8510690
  88.8701510  14.8680210  47.2934610  89.2004520  14.0001270  47.0613250
  89.2992510  15.0738730  48.1239570  93.4663430  13.1989220  44.9536580
  93.1658970  13.0754190  45.8540490  93.3600920  12.3397810  44.5452310
  89.3591720  15.7350800  50.0316240  88.9222710  15.9151600  50.8640390
  89.9269400  16.4925420  49.8897960 104.9953900  15.2367800  54.3193550
 104.3955890  15.2960360  53.5757470 105.1247800  14.2972780  54.4490400
 106.2355350  12.9785620  39.6563260 105.4048310  13.0462270  40.1270490
 106.4127180  13.8689740  39.3530120 105.6911810   9.7233100  42.1597460
 106.4530720  10.2929750  42.2657150 105.7066180   9.1560300  42.9305770
  89.1916150   8.2471030  46.3905120  88.5364990   7.9782670  45.7464820
  90.0294100   8.1375510  45.9407100 106.6971780  10.5783200  47.0039390
 107.0680610   9.7950520  46.5975360 107.3373710  11.2672300  46.8256690
 103.6805540  11.9619780  52.4169710 102.8665380  12.3916940  52.6795500
 104.0879740  12.5738190  51.8038760 105.7430980  10.0167470  39.3169980
 106.0179820  10.9246350  39.1889200 105.5541720   9.9530000  40.2531970
 102.1406590   3.0412320  40.6123610 102.5591470   2.8543300  39.7720270
 101.8342650   2.1891370  40.9226540 105.6396320   7.9536460  44.3099410
 105.2639920   7.1864390  43.8780700 104.9099440   8.3359160  44.7974340
  90.2292080   8.6323600  50.9308460  90.5965120   8.5451000  51.8104480
  89.6602900   7.8690150  50.8315320 105.0295940   7.1007980  53.9438930
 104.7982030   6.8720730  53.0436880 105.2900490   8.0207530  53.8983820
  89.7808080   5.5432690  54.8366880  88.8864130   5.5099450  55.1760590
  90.3205630   5.7419480  55.6018130 103.4684010   2.3264410  56.7218630
 104.3454190   2.3347810  57.1052630 103.4804850   1.5895250  56.1110980
  88.4054230   5.4569960  42.3330450  87.5018310   5.7200160  42.1582110
  88.8894850   5.7281130  41.5530410 104.9147280   6.1793950  47.6106650
 105.4384760   5.6856600  46.9796820 105.5006700   6.3144310  48.3554220
 105.0937000   6.2633820  51.1326200 104.1439710   6.2297360  51.2471190
 105.2750010   7.1733930  50.8975970  90.9481440   4.5135500  40.2424830
  91.6573140   4.0918720  39.7572110  90.2321380   4.5810730  39.6108180
 104.4047250   5.4367300  43.5499060 104.9006370   5.2038170  44.3347940
 104.2063320   4.5979140  43.1336700 105.8334410   4.0728250  46.0836740
 105.7233690   3.9184290  47.0219010 106.5942000   3.5449190  45.8412150
 106.7224680   1.9036170  39.3242880 107.6473990   1.7717350  39.1161170
 106.7000470   1.9828990  40.2779330 106.7963170   2.6746830  41.9499590
 106.0014670   2.6091950  42.4792500 107.0006450   3.6097470  41.9384940
 103.7381590  16.7138380  45.9437980 104.3340660  16.3922950  45.2672400
 103.9959740  16.2410200  46.7351250  91.6444160  13.1456290  56.0928610
  91.6013790  12.7749200  56.9743070  91.7755170  14.0833860  56.2330430
  95.3450190  14.7015880  51.6938330  95.1041550  14.9690440  50.8068850
  96.2852830  14.8721610  51.7489190 106.6054350  16.7210260  52.4948970
 106.1112630  17.1179130  51.7776100 105.9967640  16.0959470  52.8886250
  91.4832190  16.0918540  53.2126390  90.8892510  15.9603240  53.9516430
  91.4756030  15.2556680  52.7468490 104.2893800  17.3633680  49.7735710
 103.8296770  18.1149490  49.3993730 103.6606260  16.6440150  49.7150510
  91.1144420  13.4576920  52.1634430  90.3878480  12.8382210  52.0960380
  91.1753570  13.8517530  51.2932510  94.7189520  15.6721920  48.9483840
  95.2354540  15.0609280  48.4232100  95.3686900  16.1750700  49.4394850
  97.4585020  16.5630410  49.7752820  97.7462830  16.3084710  48.8985830
  97.9708240  16.0107770  50.3658390  89.3974420  16.7751310  45.3731190
  89.2296460  16.1421990  46.0713080  88.5308930  16.9810710  45.0225380
  96.5616250   2.7207360  45.8665360  95.7490760   2.3464250  45.5261240
  97.0657890   1.9652440  46.1686550  91.0037120  15.4684540  42.8181330
  90.4784740  15.8492570  42.1143290  90.9281700  16.0935310  43.5391040
  97.5257380  17.4846510  57.1421020  98.4524690  17.2490780  57.1856980
  97.5107810  18.3118510  56.6607050 105.7602440  17.0272080  44.1395270
 105.9354630  16.3409820  43.4956190 105.0624010  17.5519130  43.7471940
  93.6030090  17.4166920  41.6930580  94.3348910  17.1326200  41.1454470
  93.8623760  17.1780200  42.5829960  92.7644880  13.5331650  41.6976910
  92.1353760  14.0016750  42.2462740  92.8792710  12.6880870  42.1323100
 104.0934940  16.7116370  56.9662060 104.8860260  16.2165600  56.7588020
 104.3868090  17.3906510  57.5737670 100.2194600   7.5837310  27.8478110
 100.1388650   6.6691920  27.5769820  99.8059020   8.0804380  27.1417820
  98.3512640   9.3616330  29.7287380  97.5754740   8.8816770  30.0185950
  99.0025570   8.6821980  29.5543540  92.3678470   9.6736140  30.6063140
  91.5363350   9.4184850  31.0059650  92.9759450   9.7446910  31.3421060
 102.3720070  13.7676520  28.5086510 101.9101600  12.9963760  28.8373680
 103.1845620  13.7942590  29.0138960  92.3479730  13.7076230  30.8021160
  92.6507770  12.8173970  30.6231380  93.0923320  14.2646450  30.5743410
  90.7770420   4.6338030  24.3905530  89.8887120   4.9754000  24.2885410
  91.0611610   4.4338350  23.4986360  88.7403430   7.2343680  30.2745230
  89.3119540   6.4665880  30.2748870  88.7404970   7.5332440  29.3651840
  98.5983380  16.0534530  28.1290500  97.9794820  16.5092030  27.5584940
  99.4535160  16.2085990  27.7280200  97.7921630  12.0373520  29.7357540
  97.7229910  11.0963460  29.5746670  98.5541490  12.1274930  30.3080110
  89.9828300   2.6428040  32.0614160  89.8031140   1.7453790  32.3416920
  89.5808380   3.1899910  32.7361110  98.8226800   4.8443900  29.9626470
  99.1991620   3.9715780  29.8500140  98.7246310   5.1802600  29.0716910
  92.9531810   3.2169530  25.4243910  93.0598560   4.1173260  25.7312670
  92.0424170   3.1687500  25.1338560 102.6050920   2.3394340  26.8954810
 103.4260540   1.8490910  26.9380290 102.6385000   2.9292000  27.6486650
  90.6014970   5.1388540  30.6696500  91.2825080   5.4026910  31.2883900
  90.2863020   4.2989410  31.0034510  94.7939540   6.1855900  29.7569090
  95.3017760   6.6836870  30.3974110  95.3252780   5.4091100  29.5808450
 106.8950470   4.3561090  33.4598440 106.1902640   4.7442800  32.9413550
 107.1608390   5.0511380  34.0619370  99.4646730  10.9373770  25.5222410
  98.8464000  11.4023220  24.9585130  99.9769980  11.6301250  25.9391920
  94.3278490  10.4649640  32.2006010  93.9947870  11.0918560  32.8427080
  94.5045170  10.9911520  31.4207680 102.8412400   4.2794720  29.6682350
 102.1367970   4.5679610  30.2485460 103.2024560   5.0894830  29.3081910
  92.7590970   2.5364420  32.0302960  93.1007780   3.3806470  31.7356830
  91.8206780   2.6848160  32.1468300  93.5397590  12.4330440  34.0155190
  94.1571590  13.1081520  33.7339640  92.6790710  12.8418420  33.9242690
  88.8329930  11.6230300  22.8962040  88.4557910  12.1117400  22.1646940
  89.0903000  12.2955580  23.5268570 104.4575180  13.8969850  31.9309830
 103.7738700  14.5668960  31.9226500 104.9969470  14.0950500  31.1654690
 105.9099320   3.7249510  30.0591560 104.9624230   3.7588490  30.1906990
 106.2349310   4.5388460  30.4440920 101.9933920  15.7413980  30.6455010
 102.0061080  15.3376270  29.7777270 101.4409140  16.5161270  30.5416440
 103.2879340  12.4630200  25.7345180 103.1775670  11.5204530  25.8594600
 103.2847590  12.8245840  26.6207940 101.3919360  10.6443820  31.9737620
 101.8088150  10.4303930  31.1391080 102.1159180  10.9016610  32.5446240
  98.8299620   8.0895520  25.0907670  97.9028900   8.0232900  25.3196140
  98.9824440   9.0275650  24.9762910  98.8168700   4.3612520  22.0874830
  97.8772370   4.5226480  22.1727290  99.1351960   5.0798200  21.5410820
 105.3381460   9.0431040  32.0653860 104.5100090   9.1124130  31.5903990
 105.9331940   9.6285350  31.5969690 102.8596910   9.6515820  25.5942920
 102.2409330   9.3135370  24.9469220 102.8421360   9.0075580  26.3022110
 102.3023470   5.8300360  33.0108730 101.8894650   6.6554070  33.2648720
 101.5699420   5.2445400  32.8185090  94.4356260   8.6160260  27.8727400
  94.0313260   7.9037510  27.3773300  94.5219380   8.2713500  28.7615440
  94.9037960  12.3027820  30.0366610  94.6066250  11.6973290  29.3574390
  95.8537780  12.3405130  29.9255970  93.1484880   5.3903470  31.6526440
  93.6999470   5.4998810  30.8779690  93.6628390   5.7641070  32.3681670
 102.9923570  15.8759690  33.6989710 102.5154130  16.6831880  33.5062320
 102.3085360  15.2238020  33.8515920  93.9956390  12.0409510  36.6874410
  93.0984920  12.2649480  36.9347810  94.0209260  12.1644450  35.7385810
 101.0361610   8.8902630  22.6015670 101.4754890   8.0525060  22.4553490
 101.7490030   9.5232030  22.6879810  92.8227610   8.9122830  35.2631780
  92.6835380   9.7845630  35.6319180  91.9408970   8.5695640  35.1179720
  99.1456990  13.8298700  26.5696910  99.5852900  14.5723030  26.1552300
  99.0843880  14.0725270  27.4935870  94.6207960  14.8544530  37.4716930
  94.5923390  15.2587480  36.6045360  94.4572930  13.9254890  37.3088530
  91.1360890   7.5105240  25.3734050  91.0158490   8.2367330  24.7615320
  90.8261780   6.7408150  24.8961960 106.5722780  15.6371630  38.7681100
 107.0482500  16.1154520  39.4470180 107.1929940  15.5689120  38.0426600
  88.7746260  10.6820380  31.1802690  88.8526680  10.8169150  30.2358410
  89.3887940   9.9736270  31.3730810  90.0193890  12.3820570  27.5908870
  89.6121970  12.5235160  26.7362470  90.9106900  12.0980730  27.3880080
 105.9756030  12.8284480  35.9281110 106.1019090  12.5896360  35.0098290
 106.0177410  11.9969020  36.4003190  99.8372770  16.5312480  34.4975920
 100.3517440  16.4420490  35.2998350  98.9941850  16.8772180  34.7903830
 101.8127170  16.8167820  23.9259920 101.6528310  16.5270760  24.8241750
 101.6473880  16.0407950  23.3905150  94.2915550  16.5966350  25.7031540
  94.1158030  15.6801890  25.4899340  93.4371290  16.9553640  25.9429340
 101.5153300  14.3255380  22.4857920 100.8218460  14.3232670  21.8260200
 102.2576160  13.9014700  22.0552090 101.0803230  15.9518090  26.5606410
 101.5360180  15.1707470  26.8745030 101.4195750  16.6624910  27.1047590
 105.8280040   4.8816940  36.8930850 105.2124310   5.3896610  36.3646310
 105.5076460   3.9815270  36.8356790  88.8305780  11.7234550  33.7197150
  88.9936820  11.2539910  32.9016520  89.2958230  11.2158110  34.3845990
  97.8894360   3.7208830  34.3593040  97.4273730   3.9291850  35.1712980
  97.4872470   2.9068180  34.0563710 102.8898870   4.9417780  35.4889700
 102.0392460   4.6423530  35.8098770 102.7300660   5.1859790  34.5773520
  99.9848580   6.4419530  37.5888490 100.3101990   5.6083280  37.2490720
 100.7728910   6.9648050  37.7366820  93.3938770   5.9773880  26.4838970
  93.1679690   5.7611050  27.3885590  92.6131300   6.4102340  26.1384940
 100.6236530   5.9837250  25.0829620 100.0245420   6.7073050  24.8993240
 101.1716140   5.9214030  24.3006070  95.8337980   6.8759460  37.1499240
  95.7381580   5.9354190  36.9999640  96.6769960   7.0974530  36.7547310
  99.2301400   4.6200790  27.1132900  99.6230970   4.9372990  26.3001590
  99.5918250   3.7412670  27.2277420  90.9648520   3.2873130  35.3033020
  90.5711910   4.1348340  35.5105800  90.2766920   2.6499500  35.4941660
  97.5393570   3.3708100  38.3729760  96.8491890   3.1780300  39.0075850
  98.2825870   3.6542740  38.9054060  88.4535800   5.1521710  20.5465820
  88.3710470   6.0952470  20.6880810  88.1018860   5.0096620  19.6678170
  99.8156540   7.2106540  31.2083680  99.0837660   7.7193350  31.5573780
  99.4180880   6.3936520  30.9072460  96.2533930   3.8860740  29.6136170
  96.2569990   3.4450690  28.7640710  97.1485050   4.2078070  29.7207990
  92.1036310   3.7687230  28.5730380  91.7636360   4.2462460  29.3297430
  91.3413630   3.3152350  28.2131480  96.3154080   4.8872820  22.6042930
  96.4366900   4.8459300  23.5528750  95.9302590   5.7496970  22.4489660
 100.2782450   2.6640220  30.6206620 100.2955190   3.1148870  31.4648470
 100.0298030   1.7645860  30.8340060  95.3275580   7.1973960  22.0026230
  94.7592480   6.7492210  21.3762140  96.0364580   7.5566740  21.4691380
  90.4044760  11.0985980  35.8792960  90.0199550  10.4579650  36.4775920
  90.7156950  11.8022100  36.4487690  96.5541900   7.9462520  31.3601580
  96.9212030   7.4721090  32.1062920  96.3646960   8.8204090  31.7009920
  89.4182390   2.6906210  27.4895050  89.1329310   2.3261880  28.3273670
  89.3561250   1.9586670  26.8758190  94.3441270   6.9871160  33.6785790
  94.0398340   7.8663140  33.9036150  95.2987730   7.0470950  33.7143230
  92.8723060  11.1932150  24.2752640  92.0985320  10.6529770  24.1151360
  93.6017690  10.6738760  23.9370400 103.6311040  10.1897510  30.0679030
 104.3510160  10.6852800  29.6775140 103.4292860   9.5115400  29.4232900
  99.0129840  10.2606570  35.9548030  98.9467150   9.3402240  35.7005620
  98.3834980  10.3582010  36.6692670 101.8069370   5.9555120  22.5070580
 102.6948990   6.2672350  22.3321920 101.7774460   5.0827370  22.1151160
  92.9160460  10.8612530  27.9131450  93.4339130  10.0580790  27.8588340
  92.4644480  10.7991670  28.7548280  97.8029960  12.1278810  23.1858750
  98.1445660  12.8721040  22.6902070  96.9742670  12.4409930  23.5483580
  90.4005000   7.8273900  34.8257150  90.0419940   8.4927750  35.4130490
  90.1059560   6.9957450  35.1969770  93.6018120   8.2858140  37.7096700
  93.3018260   8.4315320  36.8124520  94.3729360   7.7263430  37.6170090
  98.9446570  13.0827140  35.7051830  98.9591110  12.1508100  35.4870740
  98.2371670  13.1686900  36.3441600 104.0783640   7.2666960  21.9750440
 103.9947360   7.6981180  21.1246880 104.7977830   7.7265310  22.4077260
 105.1557780   9.7234480  35.0520410 104.4305970  10.3163260  34.8549800
 105.6833240   9.7158020  34.2533780 105.1070890  14.1209220  24.7032570
 104.4647050  13.4664840  24.9776290 104.7201550  14.5264310  23.9273240
 100.6857370  11.4494650  28.5504260 101.0381190  10.8522780  27.8905630
  99.8019700  11.1238880  28.7212510  96.7720650  12.2092340  25.9574670
  97.4591780  12.7561550  26.3382260  95.9853070  12.7533070  25.9924280
  88.9113050   7.8265160  21.4491750  89.7807900   8.1089960  21.7327670
  88.4203370   8.6401030  21.3340560  96.0747860   9.2138370  25.5700030
  96.5310640  10.0243620  25.7960220  95.7236070   8.8961510  26.4018520
  98.3780470  14.7244710  32.7992330  99.0222690  14.9304090  33.4765750
  98.7409910  13.9633110  32.3463180  99.6512550  12.7277060  31.5169780
 100.2934780  12.0270220  31.6301950 100.1761900  13.5075500  31.3366670
 103.4968270  13.0125680  21.2408920 103.2705850  12.2956120  21.8333560
 103.1064470  12.7638120  20.4030670 101.4250170  13.5271960  34.7205840
 101.7606410  14.1138650  35.3983760 100.5050510  13.3964670  34.9503630
  89.2784300  17.0392540  22.0153380  89.6381940  17.6381880  21.3610650
  89.1376640  17.5852430  22.7888410 103.0784520  10.9297620  22.9023080
 102.7906220  11.3910310  23.6900960 103.8736690  10.4695390  23.1707300
  89.2626160  15.3047400  36.4895780  89.3717280  14.3642140  36.3491170
  88.6106720  15.5702150  35.8409510  97.2538750  13.5763290  37.8893900
  96.9335620  12.8572530  38.4339590  96.5797110  14.2518360  37.9629960
  95.2952920  14.4223740  22.8327050  95.2863020  15.1553430  22.2171560
  94.3751280  14.1755320  22.9254010  90.8959560   9.6438630  23.5773810
  90.2887510  10.3837530  23.5869110  91.3708910   9.7337990  22.7512010
 100.4692350   3.8089450  33.2530700 100.8373170   2.9884660  33.5810270
  99.6090550   3.8691340  33.6686350 103.8354380   2.7646390  24.0618260
 103.2067540   2.8692060  23.3476490 103.3406300   2.9843170  24.8512140
  98.2812520  14.4851980  21.4952240  98.3824500  14.2815970  20.5654220
  97.3814260  14.2310260  21.7000020  95.8038410   5.0432340  25.4776140
  95.0954560   5.5118680  25.9189750  96.0882890   4.3854350  26.1121330
  97.4294340   6.4629040  33.4768670  97.9279590   6.9374860  34.1420520
  97.5717290   5.5392560  33.6838700  99.8353840   1.7683000  26.9171930
  99.7121620   1.7869130  25.9681440 100.7838400   1.8161940  27.0370330
  96.9230630  17.0038300  26.1899910  97.1772130  16.9659690  25.2679280
  95.9743110  16.8771630  26.1828160  94.0073430   3.3517420  22.8526850
  94.8563960   3.7887570  22.7867040  93.6404700   3.6637680  23.6798910
 104.6361200   2.6797000  34.3197060 104.1334800   3.4202400  34.6590870
 105.4517860   3.0681000  34.0033850 102.9283210   7.9230180  27.7658420
 101.9873350   7.9380410  27.9406110 103.2427280   7.1366140  28.2118720
  92.9064850   9.6049780  21.3262380  93.6728120   9.4931140  21.8887810
  92.9839540   8.9087750  20.6739150  91.6011610   7.0374850  22.0095270
  91.6815200   6.0902360  22.1212670  92.4931360   7.3681730  22.1155930
 104.9308790  15.0939030  29.4412680 105.0556210  15.9170200  29.9136490
 105.7974350  14.8829760  29.0936830  92.4026320  17.1870240  29.1129810
  93.1388800  16.6385700  29.3838380  92.7867240  18.0526250  28.9735800
  89.2871800  13.2543810  24.9871320  88.3611580  13.4964950  24.9776730
  89.7528230  14.0818070  24.8656070  91.4084600  16.3716310  38.3015390
  92.2097330  16.6928360  38.7150790  90.8936420  16.0111890  39.0235300
  95.5128630  16.3600550  20.9355380  96.3057240  16.6489380  20.4837170
  94.9932980  15.9292720  20.2567860 100.2449230  12.4796180  38.2490800
  99.6387390  12.5027780  37.5086550  99.9403340  11.7479220  38.7858050
 101.6749600  16.2076470  36.8600210 102.6271350  16.1234490  36.8100450
 101.5277820  16.8718180  37.5334000 104.5658800  15.5870680  22.3592120
 104.2800310  15.1735820  21.5446300 104.3678350  16.5158390  22.2392640
  89.1282410   8.8589770  37.2451440  89.6321430   8.2797050  37.8167670
  88.3889830   9.1430000  37.7827810  96.0306030  11.5803960  20.7997730
  95.9256670  10.9656310  21.5259110  95.8630250  11.0569850  20.0160740
  96.1820350  10.2660760  36.7786960  95.4166020  10.8345760  36.6941630
  96.3636310   9.9736970  35.8855190  99.2708760  10.6423990  21.4039720
  98.7218860  11.0893290  22.0482460  99.8928020  10.1373240  21.9277390
 103.3243700  11.9966090  37.3361980 104.0653170  12.3341850  36.8329440
 102.5616380  12.1658150  36.7831750  91.1605490   7.0019360  38.1401510
  91.2010830   6.7033230  39.0486740  92.0150990   7.4026970  37.9809030
  94.9383880   9.6014910  23.3005020  95.3600300   9.4354780  24.1436410
  95.0634720   8.7915140  22.8060160  93.1011300   5.5811460  36.1076000
  92.5707760   5.0902410  35.4799340  93.7699370   6.0095660  35.5733930
  97.4511520   8.6252520  20.5482120  97.9717180   7.9101540  20.1823270
  98.0979920   9.2638390  20.8482630 101.9989360  10.0480920  35.8717190
 102.4130380  10.2026000  36.7207610 101.0640360  10.1736140  36.0342970
 102.4711530   7.3877080  37.8756340 103.0532300   6.6329400  37.7876820
 102.6473300   7.9184520  37.0987820  93.5883600   2.5473830  36.1873290
  93.4940470   1.9294580  35.4624160  93.0080990   3.2740120  35.9603200
  96.7604590  10.0001400  33.8413120  97.1792700  10.8434130  33.6689360
  95.8413220  10.1373440  33.6119900  99.0968490   7.7317580  35.2250960
  99.2164700   7.1358720  35.9645800  99.9562490   7.7687270  34.8052260
 101.4356390   8.2854770  33.8013470 100.9091610   8.8097390  33.1978610
 101.7787730   8.9182160  34.4323200  93.8342780   5.6748140  20.2463180
  93.6331840   4.8115500  20.6076520  93.6634830   5.5881500  19.3084780
  94.6112010  16.3054410  34.9570850  94.0733100  17.0300470  34.6379550
  94.8645970  15.8284750  34.1668190  95.8637260   4.2738930  36.4826780
  96.4536950   3.9654780  37.1704600  95.0457500   3.8018680  36.6386680
 100.6830690   3.8904740  36.7159800  99.9946210   3.2286280  36.6509790
 101.4036710   3.4443010  37.1608260  92.6325580   2.7748760  20.2341060
  92.9351480   2.7816190  19.3260210  93.3720170   2.4246620  20.7308720
  97.4674220  17.5405620  35.2157500  97.3932920  18.4440760  35.5229870
  96.5653060  17.2217520  35.1879570  98.0159550  16.7064130  22.8383860
  98.9110340  17.0449100  22.8602620  98.0477180  15.9843540  22.2108140
  91.6555710  12.0791180  21.0670860  92.0930580  12.6220850  21.7228440
  92.1403440  11.2538130  21.0767200  88.8701510  14.8680210  28.5191120
  89.2004520  14.0001270  28.2869760  89.2992510  15.0738730  29.3496080
  93.4663430  13.1989220  26.1793090  93.1658970  13.0754190  27.0797000
  93.3600920  12.3397810  25.7708820 104.9953900  15.2367800  35.5450060
 104.3955890  15.2960360  34.8013980 105.1247800  14.2972780  35.6746910
 106.2355350  12.9785620  20.8819770 105.4048310  13.0462270  21.3527000
 106.4127180  13.8689740  20.5786630 105.6911810   9.7233100  23.3853970
 106.4530720  10.2929750  23.4913660 105.7066180   9.1560300  24.1562280
  89.1916150   8.2471030  27.6161630  88.5364990   7.9782670  26.9721330
  90.0294100   8.1375510  27.1663610 106.6971780  10.5783200  28.2295900
 107.0680610   9.7950520  27.8231870 107.3373710  11.2672300  28.0513200
 103.6805540  11.9619780  33.6426220 102.8665380  12.3916940  33.9052010
 104.0879740  12.5738190  33.0295270 105.7430980  10.0167470  20.5426490
 106.0179820  10.9246350  20.4145710 105.5541720   9.9530000  21.4788480
 102.1406590   3.0412320  21.8380120 102.5591470   2.8543300  20.9976780
 101.8342650   2.1891370  22.1483050 105.6396320   7.9536460  25.5355920
 105.2639920   7.1864390  25.1037210 104.9099440   8.3359160  26.0230850
  90.2292080   8.6323600  32.1564970  90.5965120   8.5451000  33.0360990
  89.6602900   7.8690150  32.0571830 105.0295940   7.1007980  35.1695440
 104.7982030   6.8720730  34.2693390 105.2900490   8.0207530  35.1240330
  89.7808080   5.5432690  36.0623390  88.8864130   5.5099450  36.4017100
  90.3205630   5.7419480  36.8274640 103.4684010   2.3264410  37.9475140
 104.3454190   2.3347810  38.3309140 103.4804850   1.5895250  37.3367490
  88.4054230   5.4569960  23.5586960  87.5018310   5.7200160  23.3838620
  88.8894850   5.7281130  22.7786920 104.9147280   6.1793950  28.8363160
 105.4384760   5.6856600  28.2053330 105.5006700   6.3144310  29.5810730
 105.0937000   6.2633820  32.3582710 104.1439710   6.2297360  32.4727700
 105.2750010   7.1733930  32.1232480  90.9481440   4.5135500  21.4681340
  91.6573140   4.0918720  20.9828620  90.2321380   4.5810730  20.8364690
 104.4047250   5.4367300  24.7755570 104.9006370   5.2038170  25.5604450
 104.2063320   4.5979140  24.3593210 105.8334410   4.0728250  27.3093250
 105.7233690   3.9184290  28.2475520 106.5942000   3.5449190  27.0668660
 106.7224680   1.9036170  20.5499390 107.6473990   1.7717350  20.3417680
 106.7000470   1.9828990  21.5035840 106.7963170   2.6746830  23.1756100
 106.0014670   2.6091950  23.7049010 107.0006450   3.6097470  23.1641450
 103.7381590  16.7138380  27.1694490 104.3340660  16.3922950  26.4928910
 103.9959740  16.2410200  27.9607760  91.6444160  13.1456290  37.3185120
  91.6013790  12.7749200  38.1999580  91.7755170  14.0833860  37.4586940
  95.3450190  14.7015880  32.9194840  95.1041550  14.9690440  32.0325360
  96.2852830  14.8721610  32.9745700 106.6054350  16.7210260  33.7205480
 106.1112630  17.1179130  33.0032610 105.9967640  16.0959470  34.1142760
  91.4832190  16.0918540  34.4382900  90.8892510  15.9603240  35.1772940
  91.4756030  15.2556680  33.9725000 104.2893800  17.3633680  30.9992220
 103.8296770  18.1149490  30.6250240 103.6606260  16.6440150  30.9407020
  91.1144420  13.4576920  33.3890940  90.3878480  12.8382210  33.3216890
  91.1753570  13.8517530  32.5189020  94.7189520  15.6721920  30.1740350
  95.2354540  15.0609280  29.6488610  95.3686900  16.1750700  30.6651360
  97.4585020  16.5630410  31.0009330  97.7462830  16.3084710  30.1242340
  97.9708240  16.0107770  31.5914900  89.3974420  16.7751310  26.5987700
  89.2296460  16.1421990  27.2969590  88.5308930  16.9810710  26.2481890
  96.5616250   2.7207360  27.0921870  95.7490760   2.3464250  26.7517750
  97.0657890   1.9652440  27.3943060  91.0037120  15.4684540  24.0437840
  90.4784740  15.8492570  23.3399800  90.9281700  16.0935310  24.7647550
  97.5257380  17.4846510  38.3677530  98.4524690  17.2490780  38.4113490
  97.5107810  18.3118510  37.8863560 105.7602440  17.0272080  25.3651780
 105.9354630  16.3409820  24.7212700 105.0624010  17.5519130  24.9728450
  93.6030090  17.4166920  22.9187090  94.3348910  17.1326200  22.3710980
  93.8623760  17.1780200  23.8086470  92.7644880  13.5331650  22.9233420
  92.1353760  14.0016750  23.4719250  92.8792710  12.6880870  23.3579610
 104.0934940  16.7116370  38.1918570 104.8860260  16.2165600  37.9844530
 104.3868090  17.3906510  38.7994180 100.2194600   7.5837310   9.0734620
 100.1388650   6.6691920   8.8026330  99.8059020   8.0804380   8.3674330
  98.3512640   9.3616330  10.9543890  97.5754740   8.8816770  11.2442460
  99.0025570   8.6821980  10.7800050  92.3678470   9.6736140  11.8319650
  91.5363350   9.4184850  12.2316160  92.9759450   9.7446910  12.5677570
 102.3720070  13.7676520   9.7343020 101.9101600  12.9963760  10.0630190
 103.1845620  13.7942590  10.2395470  92.3479730  13.7076230  12.0277670
  92.6507770  12.8173970  11.8487890  93.0923320  14.2646450  11.7999920
  90.7770420   4.6338030   5.6162040  89.8887120   4.9754000   5.5141920
  91.0611610   4.4338350   4.7242870  88.7403430   7.2343680  11.5001740
  89.3119540   6.4665880  11.5005380  88.7404970   7.5332440  10.5908350
  98.5983380  16.0534530   9.3547010  97.9794820  16.5092030   8.7841450
  99.4535160  16.2085990   8.9536710  97.7921630  12.0373520  10.9614050
  97.7229910  11.0963460  10.8003180  98.5541490  12.1274930  11.5336620
  89.9828300   2.6428040  13.2870670  89.8031140   1.7453790  13.5673430
  89.5808380   3.1899910  13.9617620  98.8226800   4.8443900  11.1882980
  99.1991620   3.9715780  11.0756650  98.7246310   5.1802600  10.2973420
  92.9531810   3.2169530   6.6500420  93.0598560   4.1173260   6.9569180
  92.0424170   3.1687500   6.3595070 102.6050920   2.3394340   8.1211320
 103.4260540   1.8490910   8.1636800 102.6385000   2.9292000   8.8743160
  90.6014970   5.1388540  11.8953010  91.2825080   5.4026910  12.5140410
  90.2863020   4.2989410  12.2291020  94.7939540   6.1855900  10.9825600
  95.3017760   6.6836870  11.6230620  95.3252780   5.4091100  10.8064960
 106.8950470   4.3561090  14.6854950 106.1902640   4.7442800  14.1670060
 107.1608390   5.0511380  15.2875880  99.4646730  10.9373770   6.7478920
  98.8464000  11.4023220   6.1841640  99.9769980  11.6301250   7.1648430
  94.3278490  10.4649640  13.4262520  93.9947870  11.0918560  14.0683590
  94.5045170  10.9911520  12.6464190 102.8412400   4.2794720  10.8938860
 102.1367970   4.5679610  11.4741970 103.2024560   5.0894830  10.5338420
  92.7590970   2.5364420  13.2559470  93.1007780   3.3806470  12.9613340
  91.8206780   2.6848160  13.3724810  93.5397590  12.4330440  15.2411700
  94.1571590  13.1081520  14.9596150  92.6790710  12.8418420  15.1499200
  88.8329930  11.6230300   4.1218550  88.4557910  12.1117400   3.3903450
  89.0903000  12.2955580   4.7525080 104.4575180  13.8969850  13.1566340
 103.7738700  14.5668960  13.1483010 104.9969470  14.0950500  12.3911200
 105.9099320   3.7249510  11.2848070 104.9624230   3.7588490  11.4163500
 106.2349310   4.5388460  11.6697430 101.9933920  15.7413980  11.8711520
 102.0061080  15.3376270  11.0033780 101.4409140  16.5161270  11.7672950
 103.2879340  12.4630200   6.9601690 103.1775670  11.5204530   7.0851110
 103.2847590  12.8245840   7.8464450 101.3919360  10.6443820  13.1994130
 101.8088150  10.4303930  12.3647590 102.1159180  10.9016610  13.7702750
  98.8299620   8.0895520   6.3164180  97.9028900   8.0232900   6.5452650
  98.9824440   9.0275650   6.2019420  98.8168700   4.3612520   3.3131340
  97.8772370   4.5226480   3.3983800  99.1351960   5.0798200   2.7667330
 105.3381460   9.0431040  13.2910370 104.5100090   9.1124130  12.8160500
 105.9331940   9.6285350  12.8226200 102.8596910   9.6515820   6.8199430
 102.2409330   9.3135370   6.1725730 102.8421360   9.0075580   7.5278620
 102.3023470   5.8300360  14.2365240 101.8894650   6.6554070  14.4905230
 101.5699420   5.2445400  14.0441600  94.4356260   8.6160260   9.0983910
  94.0313260   7.9037510   8.6029810  94.5219380   8.2713500   9.9871950
  94.9037960  12.3027820  11.2623120  94.6066250  11.6973290  10.5830900
  95.8537780  12.3405130  11.1512480  93.1484880   5.3903470  12.8782950
  93.6999470   5.4998810  12.1036200  93.6628390   5.7641070  13.5938180
 102.9923570  15.8759690  14.9246220 102.5154130  16.6831880  14.7318830
 102.3085360  15.2238020  15.0772430  93.9956390  12.0409510  17.9130920
  93.0984920  12.2649480  18.1604320  94.0209260  12.1644450  16.9642320
 101.0361610   8.8902630   3.8272180 101.4754890   8.0525060   3.6810000
 101.7490030   9.5232030   3.9136320  92.8227610   8.9122830  16.4888290
  92.6835380   9.7845630  16.8575690  91.9408970   8.5695640  16.3436230
  99.1456990  13.8298700   7.7953420  99.5852900  14.5723030   7.3808810
  99.0843880  14.0725270   8.7192380  94.6207960  14.8544530  18.6973440
  94.5923390  15.2587480  17.8301870  94.4572930  13.9254890  18.5345040
  91.1360890   7.5105240   6.5990560  91.0158490   8.2367330   5.9871830
  90.8261780   6.7408150   6.1218470 106.5722780  15.6371630  19.9937610
 107.0482500  16.1154520  20.6726690 107.1929940  15.5689120  19.2683110
  88.7746260  10.6820380  12.4059200  88.8526680  10.8169150  11.4614920
  89.3887940   9.9736270  12.5987320  90.0193890  12.3820570   8.8165380
  89.6121970  12.5235160   7.9618980  90.9106900  12.0980730   8.6136590
 105.9756030  12.8284480  17.1537620 106.1019090  12.5896360  16.2354800
 106.0177410  11.9969020  17.6259700  99.8372770  16.5312480  15.7232430
 100.3517440  16.4420490  16.5254860  98.9941850  16.8772180  16.0160340
 101.8127170  16.8167820   5.1516430 101.6528310  16.5270760   6.0498260
 101.6473880  16.0407950   4.6161660  94.2915550  16.5966350   6.9288050
  94.1158030  15.6801890   6.7155850  93.4371290  16.9553640   7.1685850
 101.5153300  14.3255380   3.7114430 100.8218460  14.3232670   3.0516710
 102.2576160  13.9014700   3.2808600 101.0803230  15.9518090   7.7862920
 101.5360180  15.1707470   8.1001540 101.4195750  16.6624910   8.3304100
 105.8280040   4.8816940  18.1187360 105.2124310   5.3896610  17.5902820
 105.5076460   3.9815270  18.0613300  88.8305780  11.7234550  14.9453660
  88.9936820  11.2539910  14.1273030  89.2958230  11.2158110  15.6102500
  97.8894360   3.7208830  15.5849550  97.4273730   3.9291850  16.3969490
  97.4872470   2.9068180  15.2820220 102.8898870   4.9417780  16.7146210
 102.0392460   4.6423530  17.0355280 102.7300660   5.1859790  15.8030030
  99.9848580   6.4419530  18.8145000 100.3101990   5.6083280  18.4747230
 100.7728910   6.9648050  18.9623330  93.3938770   5.9773880   7.7095480
  93.1679690   5.7611050   8.6142100  92.6131300   6.4102340   7.3641450
 100.6236530   5.9837250   6.3086130 100.0245420   6.7073050   6.1249750
 101.1716140   5.9214030   5.5262580  95.8337980   6.8759460  18.3755750
  95.7381580   5.9354190  18.2256150  96.6769960   7.0974530  17.9803820
  99.2301400   4.6200790   8.3389410  99.6230970   4.9372990   7.5258100
  99.5918250   3.7412670   8.4533930  90.9648520   3.2873130  16.5289530
  90.5711910   4.1348340  16.7362310  90.2766920   2.6499500  16.7198170
  97.5393570   3.3708100  19.5986270  96.8491890   3.1780300  20.2332360
  98.2825870   3.6542740  20.1310570  99.8156540   7.2106540  12.4340190
  99.0837660   7.7193350  12.7830290  99.4180880   6.3936520  12.1328970
  96.2533930   3.8860740  10.8392680  96.2569990   3.4450690   9.9897220
  97.1485050   4.2078070  10.9464500  92.1036310   3.7687230   9.7986890
  91.7636360   4.2462460  10.5553940  91.3413630   3.3152350   9.4387990
  96.3154080   4.8872820   3.8299440  96.4366900   4.8459300   4.7785260
  95.9302590   5.7496970   3.6746170 100.2782450   2.6640220  11.8463130
 100.2955190   3.1148870  12.6904980 100.0298030   1.7645860  12.0596570
  95.3275580   7.1973960   3.2282740  94.7592480   6.7492210   2.6018650
  96.0364580   7.5566740   2.6947890  90.4044760  11.0985980  17.1049470
  90.0199550  10.4579650  17.7032430  90.7156950  11.8022100  17.6744200
  96.5541900   7.9462520  12.5858090  96.9212030   7.4721090  13.3319430
  96.3646960   8.8204090  12.9266430  89.4182390   2.6906210   8.7151560
  89.1329310   2.3261880   9.5530180  89.3561250   1.9586670   8.1014700
  94.3441270   6.9871160  14.9042300  94.0398340   7.8663140  15.1292660
  95.2987730   7.0470950  14.9399740  92.8723060  11.1932150   5.5009150
  92.0985320  10.6529770   5.3407870  93.6017690  10.6738760   5.1626910
 103.6311040  10.1897510  11.2935540 104.3510160  10.6852800  10.9031650
 103.4292860   9.5115400  10.6489410  99.0129840  10.2606570  17.1804540
  98.9467150   9.3402240  16.9262130  98.3834980  10.3582010  17.8949180
 101.8069370   5.9555120   3.7327090 102.6948990   6.2672350   3.5578430
 101.7774460   5.0827370   3.3407670  92.9160460  10.8612530   9.1387960
  93.4339130  10.0580790   9.0844850  92.4644480  10.7991670   9.9804790
  97.8029960  12.1278810   4.4115260  98.1445660  12.8721040   3.9158580
  96.9742670  12.4409930   4.7740090  90.4005000   7.8273900  16.0513660
  90.0419940   8.4927750  16.6387000  90.1059560   6.9957450  16.4226280
  93.6018120   8.2858140  18.9353210  93.3018260   8.4315320  18.0381030
  94.3729360   7.7263430  18.8426600  98.9446570  13.0827140  16.9308340
  98.9591110  12.1508100  16.7127250  98.2371670  13.1686900  17.5698110
 104.0783640   7.2666960   3.2006950 103.9947360   7.6981180   2.3503390
 104.7977830   7.7265310   3.6333770 105.1557780   9.7234480  16.2776920
 104.4305970  10.3163260  16.0806310 105.6833240   9.7158020  15.4790290
 105.1070890  14.1209220   5.9289080 104.4647050  13.4664840   6.2032800
 104.7201550  14.5264310   5.1529750 100.6857370  11.4494650   9.7760770
 101.0381190  10.8522780   9.1162140  99.8019700  11.1238880   9.9469020
  96.7720650  12.2092340   7.1831180  97.4591780  12.7561550   7.5638770
  95.9853070  12.7533070   7.2180790  88.9113050   7.8265160   2.6748260
  89.7807900   8.1089960   2.9584180  88.4203370   8.6401030   2.5597070
  96.0747860   9.2138370   6.7956540  96.5310640  10.0243620   7.0216730
  95.7236070   8.8961510   7.6275030  98.3780470  14.7244710  14.0248840
  99.0222690  14.9304090  14.7022260  98.7409910  13.9633110  13.5719690
  99.6512550  12.7277060  12.7426290 100.2934780  12.0270220  12.8558460
 100.1761900  13.5075500  12.5623180 103.4968270  13.0125680   2.4665430
 103.2705850  12.2956120   3.0590070 103.1064470  12.7638120   1.6287180
 101.4250170  13.5271960  15.9462350 101.7606410  14.1138650  16.6240270
 100.5050510  13.3964670  16.1760140  89.2784300  17.0392540   3.2409890
  89.6381940  17.6381880   2.5867160  89.1376640  17.5852430   4.0144920
 103.0784520  10.9297620   4.1279590 102.7906220  11.3910310   4.9157470
 103.8736690  10.4695390   4.3963810  89.2626160  15.3047400  17.7152290
  89.3717280  14.3642140  17.5747680  88.6106720  15.5702150  17.0666020
  97.2538750  13.5763290  19.1150410  96.9335620  12.8572530  19.6596100
  96.5797110  14.2518360  19.1886470  95.2952920  14.4223740   4.0583560
  95.2863020  15.1553430   3.4428070  94.3751280  14.1755320   4.1510520
  90.8959560   9.6438630   4.8030320  90.2887510  10.3837530   4.8125620
  91.3708910   9.7337990   3.9768520 100.4692350   3.8089450  14.4787210
 100.8373170   2.9884660  14.8066780  99.6090550   3.8691340  14.8942860
 103.8354380   2.7646390   5.2874770 103.2067540   2.8692060   4.5733000
 103.3406300   2.9843170   6.0768650  98.2812520  14.4851980   2.7208750
  98.3824500  14.2815970   1.7910730  97.3814260  14.2310260   2.9256530
  95.8038410   5.0432340   6.7032650  95.0954560   5.5118680   7.1446260
  96.0882890   4.3854350   7.3377840  97.4294340   6.4629040  14.7025180
  97.9279590   6.9374860  15.3677030  97.5717290   5.5392560  14.9095210
  99.8353840   1.7683000   8.1428440  99.7121620   1.7869130   7.1937950
 100.7838400   1.8161940   8.2626840  96.9230630  17.0038300   7.4156420
  97.1772130  16.9659690   6.4935790  95.9743110  16.8771630   7.4084670
  94.0073430   3.3517420   4.0783360  94.8563960   3.7887570   4.0123550
  93.6404700   3.6637680   4.9055420 104.6361200   2.6797000  15.5453570
 104.1334800   3.4202400  15.8847380 105.4517860   3.0681000  15.2290360
 102.9283210   7.9230180   8.9914930 101.9873350   7.9380410   9.1662620
 103.2427280   7.1366140   9.4375230  92.9064850   9.6049780   2.5518890
  93.6728120   9.4931140   3.1144320  92.9839540   8.9087750   1.8995660
  91.6011610   7.0374850   3.2351780  91.6815200   6.0902360   3.3469180
  92.4931360   7.3681730   3.3412440 104.9308790  15.0939030  10.6669190
 105.0556210  15.9170200  11.1393000 105.7974350  14.8829760  10.3193340
  92.4026320  17.1870240  10.3386320  93.1388800  16.6385700  10.6094890
  92.7867240  18.0526250  10.1992310  89.2871800  13.2543810   6.2127830
  88.3611580  13.4964950   6.2033240  89.7528230  14.0818070   6.0912580
  91.4084600  16.3716310  19.5271900  92.2097330  16.6928360  19.9407300
  90.8936420  16.0111890  20.2491810  95.5128630  16.3600550   2.1611890
  96.3057240  16.6489380   1.7093680  94.9932980  15.9292720   1.4824370
 100.2449230  12.4796180  19.4747310  99.6387390  12.5027780  18.7343060
  99.9403340  11.7479220  20.0114560 101.6749600  16.2076470  18.0856720
 102.6271350  16.1234490  18.0356960 101.5277820  16.8718180  18.7590510
 104.5658800  15.5870680   3.5848630 104.2800310  15.1735820   2.7702810
 104.3678350  16.5158390   3.4649150  89.1282410   8.8589770  18.4707950
  89.6321430   8.2797050  19.0424180  88.3889830   9.1430000  19.0084320
  96.1820350  10.2660760  18.0043470  95.4166020  10.8345760  17.9198140
  96.3636310   9.9736970  17.1111700  99.2708760  10.6423990   2.6296230
  98.7218860  11.0893290   3.2738970  99.8928020  10.1373240   3.1533900
 103.3243700  11.9966090  18.5618490 104.0653170  12.3341850  18.0585950
 102.5616380  12.1658150  18.0088260  91.1605490   7.0019360  19.3658020
  91.2010830   6.7033230  20.2743250  92.0150990   7.4026970  19.2065540
  94.9383880   9.6014910   4.5261530  95.3600300   9.4354780   5.3692920
  95.0634720   8.7915140   4.0316670  93.1011300   5.5811460  17.3332510
  92.5707760   5.0902410  16.7055850  93.7699370   6.0095660  16.7990440
 101.9989360  10.0480920  17.0973700 102.4130380  10.2026000  17.9464120
 101.0640360  10.1736140  17.2599480 102.4711530   7.3877080  19.1012850
 103.0532300   6.6329400  19.0133330 102.6473300   7.9184520  18.3244330
  93.5883600   2.5473830  17.4129800  93.4940470   1.9294580  16.6880670
  93.0080990   3.2740120  17.1859710  96.7604590  10.0001400  15.0669630
  97.1792700  10.8434130  14.8945870  95.8413220  10.1373440  14.8376410
  99.0968490   7.7317580  16.4507470  99.2164700   7.1358720  17.1902310
  99.9562490   7.7687270  16.0308770 101.4356390   8.2854770  15.0269980
 100.9091610   8.8097390  14.4235120 101.7787730   8.9182160  15.6579710
  94.6112010  16.3054410  16.1827360  94.0733100  17.0300470  15.8636060
  94.8645970  15.8284750  15.3924700  95.8637260   4.2738930  17.7083290
  96.4536950   3.9654780  18.3961110  95.0457500   3.8018680  17.8643190
 100.6830690   3.8904740  17.9416310  99.9946210   3.2286280  17.8766300
 101.4036710   3.4443010  18.3864770  97.4674220  17.5405620  16.4414010
  97.3932920  18.4440760  16.7486380  96.5653060  17.2217520  16.4136080
  98.0159550  16.7064130   4.0640370  98.9110340  17.0449100   4.0859130
  98.0477180  15.9843540   3.4364650  91.6555710  12.0791180   2.2927370
  92.0930580  12.6220850   2.9484950  92.1403440  11.2538130   2.3023710
  88.8701510  14.8680210   9.7447630  89.2004520  14.0001270   9.5126270
  89.2992510  15.0738730  10.5752590  93.4663430  13.1989220   7.4049600
  93.1658970  13.0754190   8.3053510  93.3600920  12.3397810   6.9965330
  89.3591720  15.7350800  12.4829260  88.9222710  15.9151600  13.3153410
  89.9269400  16.4925420  12.3410980 104.9953900  15.2367800  16.7706570
 104.3955890  15.2960360  16.0270490 105.1247800  14.2972780  16.9003420
 106.2355350  12.9785620   2.1076280 105.4048310  13.0462270   2.5783510
 106.4127180  13.8689740   1.8043140 105.6911810   9.7233100   4.6110480
 106.4530720  10.2929750   4.7170170 105.7066180   9.1560300   5.3818790
  89.1916150   8.2471030   8.8418140  88.5364990   7.9782670   8.1977840
  90.0294100   8.1375510   8.3920120 106.6971780  10.5783200   9.4552410
 107.0680610   9.7950520   9.0488380 107.3373710  11.2672300   9.2769710
 103.6805540  11.9619780  14.8682730 102.8665380  12.3916940  15.1308520
 104.0879740  12.5738190  14.2551780 105.7430980  10.0167470   1.7683000
 106.0179820  10.9246350   1.6402220 105.5541720   9.9530000   2.7044990
 102.1406590   3.0412320   3.0636630 102.5591470   2.8543300   2.2233290
 101.8342650   2.1891370   3.3739560 105.6396320   7.9536460   6.7612430
 105.2639920   7.1864390   6.3293720 104.9099440   8.3359160   7.2487360
  90.2292080   8.6323600  13.3821480  90.5965120   8.5451000  14.2617500
  89.6602900   7.8690150  13.2828340 105.0295940   7.1007980  16.3951950
 104.7982030   6.8720730  15.4949900 105.2900490   8.0207530  16.3496840
  89.7808080   5.5432690  17.2879900  88.8864130   5.5099450  17.6273610
  90.3205630   5.7419480  18.0531150 103.4684010   2.3264410  19.1731650
 104.3454190   2.3347810  19.5565650 103.4804850   1.5895250  18.5624000
  88.4054230   5.4569960   4.7843470  87.5018310   5.7200160   4.6095130
  88.8894850   5.7281130   4.0043430 104.9147280   6.1793950  10.0619670
 105.4384760   5.6856600   9.4309840 105.5006700   6.3144310  10.8067240
 105.0937000   6.2633820  13.5839220 104.1439710   6.2297360  13.6984210
 105.2750010   7.1733930  13.3488990  90.9481440   4.5135500   2.6937850
  91.6573140   4.0918720   2.2085130  90.2321380   4.5810730   2.0621200
 104.4047250   5.4367300   6.0012080 104.9006370   5.2038170   6.7860960
 104.2063320   4.5979140   5.5849720 105.8334410   4.0728250   8.5349760
 105.7233690   3.9184290   9.4732030 106.5942000   3.5449190   8.2925170
 106.7224680   1.9036170   1.7755900 107.6473990   1.7717350   1.5674190
 106.7000470   1.9828990   2.7292350 106.7963170   2.6746830   4.4012610
 106.0014670   2.6091950   4.9305520 107.0006450   3.6097470   4.3897960
 103.7381590  16.7138380   8.3951000 104.3340660  16.3922950   7.7185420
 103.9959740  16.2410200   9.1864270  91.6444160  13.1456290  18.5441630
  91.6013790  12.7749200  19.4256090  91.7755170  14.0833860  18.6843450
  95.3450190  14.7015880  14.1451350  95.1041550  14.9690440  13.2581870
  96.2852830  14.8721610  14.2002210 106.6054350  16.7210260  14.9461990
 106.1112630  17.1179130  14.2289120 105.9967640  16.0959470  15.3399270
  91.4832190  16.0918540  15.6639410  90.8892510  15.9603240  16.4029450
  91.4756030  15.2556680  15.1981510 104.2893800  17.3633680  12.2248730
 103.8296770  18.1149490  11.8506750 103.6606260  16.6440150  12.1663530
  91.1144420  13.4576920  14.6147450  90.3878480  12.8382210  14.5473400
  91.1753570  13.8517530  13.7445530  94.7189520  15.6721920  11.3996860
  95.2354540  15.0609280  10.8745120  95.3686900  16.1750700  11.8907870
  97.4585020  16.5630410  12.2265840  97.7462830  16.3084710  11.3498850
  97.9708240  16.0107770  12.8171410  89.3974420  16.7751310   7.8244210
  89.2296460  16.1421990   8.5226100  88.5308930  16.9810710   7.4738400
  96.5616250   2.7207360   8.3178380  95.7490760   2.3464250   7.9774260
  97.0657890   1.9652440   8.6199570  91.0037120  15.4684540   5.2694350
  90.4784740  15.8492570   4.5656310  90.9281700  16.0935310   5.9904060
  97.5257380  17.4846510  19.5934040  98.4524690  17.2490780  19.6370000
  97.5107810  18.3118510  19.1120070 105.7602440  17.0272080   6.5908290
 105.9354630  16.3409820   5.9469210 105.0624010  17.5519130   6.1984960
  93.6030090  17.4166920   4.1443600  94.3348910  17.1326200   3.5967490
  93.8623760  17.1780200   5.0342980  92.7644880  13.5331650   4.1489930
  92.1353760  14.0016750   4.6975760  92.8792710  12.6880870   4.5836120
 104.0934940  16.7116370  19.4175080 104.8860260  16.2165600  19.2101040
 104.3868090  17.3906510  20.0250690  81.4451110  82.6811270  65.3965090
  81.3645160  81.7665880  65.1256800  81.0315530  83.1778340  64.6904800
  79.5769150  84.4590290  67.2774360  78.8011250  83.9790730  67.5672930
  80.2282080  83.7795940  67.1030520  73.5934980  84.7710100  68.1550120
  72.7619860  84.5158810  68.5546630  74.2015960  84.8420870  68.8908040
  83.5976580  88.8650480  66.0573490  83.1358110  88.0937720  66.3860660
  84.4102130  88.8916550  66.5625940  73.5736240  88.8050190  68.3508140
  73.8764280  87.9147930  68.1718360  74.3179830  89.3620410  68.1230390
  72.0026930  79.7311990  61.9392510  71.1143630  80.0727960  61.8372390
  72.2868120  79.5312310  61.0473340  69.9659940  82.3317640  67.8232210
  70.5376050  81.5639840  67.8235850  69.9661480  82.6306400  66.9138820
  79.0178140  87.1347480  67.2844520  78.9486420  86.1937420  67.1233650
  79.7798000  87.2248890  67.8567090  71.2084810  77.7402000  69.6101140
  71.0287650  76.8427750  69.8903900  70.8064890  78.2873870  70.2848090
  80.0483310  79.9417860  67.5113450  80.4248130  79.0689740  67.3987120
  79.9502820  80.2776560  66.6203890  74.1788320  78.3143490  62.9730890
  74.2855070  79.2147220  63.2799650  73.2680680  78.2661460  62.6825540
  83.8307430  77.4368300  64.4441790  84.6517050  76.9464870  64.4867270
  83.8641510  78.0265960  65.1973630  71.8271480  80.2362500  68.2183480
  72.5081590  80.5000870  68.8370880  71.5119530  79.3963370  68.5521490
  76.0196050  81.2829860  67.3056070  76.5274270  81.7810830  67.9461090
  76.5509290  80.5065060  67.1295430  88.1206980  79.4535050  71.0085420
  87.4159150  79.8416760  70.4900530  88.3864900  80.1485340  71.6106350
  74.3032150  75.9228420  71.5719490  74.3050590  76.4400810  70.7665390
  73.4736460  75.4458600  71.5489420  80.6903240  86.0347730  63.0709390
  80.0720510  86.4997180  62.5072110  81.2026490  86.7275210  63.4878900
  75.5535000  85.5623600  69.7492990  75.2204380  86.1892520  70.3914060
  75.7301680  86.0885480  68.9694660  84.0668910  79.3768680  67.2169330
  83.3624480  79.6653570  67.7972440  84.4281070  80.1868790  66.8568890
  73.9847480  77.6338380  69.5789940  74.3264290  78.4780430  69.2843810
  73.0463290  77.7822120  69.6955280  74.7654100  87.5304400  71.5642170
  75.3828100  88.2055480  71.2826620  73.9047220  87.9392380  71.4729670
  70.0586440  86.7204260  60.4449020  69.6814420  87.2091360  59.7133920
  70.3159510  87.3929540  61.0755550  85.6831690  88.9943810  69.4796810
  84.9995210  89.6642920  69.4713480  86.2225980  89.1924460  68.7141670
  87.1355830  78.8223470  67.6078540  86.1880740  78.8562450  67.7393970
  87.4605820  79.6362420  67.9927900  77.6675370  75.1220650  65.9034530
  77.9750350  74.5667540  65.1870030  76.7376070  75.2565110  65.7207520
  84.5135850  87.5604160  63.2832160  84.4032180  86.6178490  63.4081580
  84.5104100  87.9219800  64.1694920  82.6175870  85.7417780  69.5224600
  83.0344660  85.5277890  68.6878060  83.3415690  85.9990570  70.0933220
  80.0556130  83.1869480  62.6394650  79.1285410  83.1206860  62.8683120
  80.2080950  84.1249610  62.5249890  80.0425210  79.4586480  59.6361810
  79.1028880  79.6200440  59.7214270  80.3608470  80.1772160  59.0897800
  86.5637970  84.1405000  69.6140840  85.7356600  84.2098090  69.1390970
  87.1588450  84.7259310  69.1456670  84.0853420  84.7489780  63.1429900
  83.4665840  84.4109330  62.4956200  84.0677870  84.1049540  63.8509090
  83.5279980  80.9274320  70.5595710  83.1151160  81.7528030  70.8135700
  82.7955930  80.3419360  70.3672070  75.6612770  83.7134220  65.4214380
  75.2569770  83.0011470  64.9260280  75.7475890  83.3687460  66.3102420
  76.1294470  87.4001780  67.5853590  75.8322760  86.7947250  66.9061370
  77.0794290  87.4379090  67.4742950  74.3741390  80.4877430  69.2013420
  74.9255980  80.5972770  68.4266670  74.8884900  80.8615030  69.9168650
  75.2212900  87.1383470  74.2361390  74.3241430  87.3623440  74.4834790
  75.2465770  87.2618410  73.2872790  82.2618120  83.9876590  60.1502650
  82.7011400  83.1499020  60.0040470  82.9746540  84.6205990  60.2366790
  74.0484120  84.0096790  72.8118760  73.9091890  84.8819590  73.1806160
  73.1665480  83.6669600  72.6666700  80.3713500  88.9272660  64.1183890
  80.8109410  89.6696990  63.7039280  80.3100390  89.1699230  65.0422850
  75.8464470  89.9518490  75.0203910  75.8179900  90.3561440  74.1532340
  75.6829440  89.0228850  74.8575510  85.8435260  75.2419400  58.4643690
  85.5307920  75.3346230  59.3642760  86.6047730  75.8200430  58.4141120
  72.3617400  82.6079200  62.9221030  72.2415000  83.3341290  62.3102300
  72.0518290  81.8382110  62.4448940  70.0002770  85.7794340  68.7289670
  70.0783190  85.9143110  67.7845390  70.6144450  85.0710230  68.9217790
  71.2450400  87.4794530  65.1395850  70.8378480  87.6209120  64.2849450
  72.1363410  87.1954690  64.9367060  87.2012540  87.9258440  73.4768090
  87.3275600  87.6870320  72.5585270  87.2433920  87.0942980  73.9490170
  82.7409810  89.4229340  60.0344900  82.0474970  89.4206630  59.3747180
  83.4832670  88.9988660  59.6039070  87.0536550  79.9790900  74.4417830
  86.4380820  80.4870570  73.9133290  86.7332970  79.0789230  74.3843770
  70.0562290  86.8208510  71.2684130  70.2193330  86.3513870  70.4503500
  70.5214740  86.3132070  71.9332970  74.8281060  75.9514270  66.3044700
  74.3849210  76.7323810  65.9729220  75.3866050  76.2744160  67.0115640
  79.1150870  78.8182790  71.9080020  78.6530240  79.0265810  72.7199960
  78.7128980  78.0042140  71.6050690  84.1155380  80.0391740  73.0376680
  83.2648970  79.7397490  73.3585750  83.9557170  80.2833750  72.1260500
  81.2105090  81.5393490  75.1375470  81.5358500  80.7057240  74.7977700
  81.9985420  82.0622010  75.2853800  77.9439880  75.5724970  61.1850530
  77.3194060  75.5684840  61.9103840  77.8570000  74.7055930  60.7886500
  76.8656960  76.4961600  68.1634300  77.1629290  77.4024430  68.0826320
  77.4142520  76.0080380  67.5493870  74.6195280  81.0747840  64.0325950
  74.3936200  80.8585010  64.9372570  73.8387810  81.5076300  63.6871920
  81.8493040  81.0811210  62.6316600  81.2501930  81.8047010  62.4480220
  82.3972650  81.0187990  61.8493050  77.0594490  81.9733420  74.6986220
  76.9638090  81.0328150  74.5486620  77.9026470  82.1948490  74.3034290
  80.4557910  79.7174750  64.6619880  80.8487480  80.0346950  63.8488570
  80.8174760  78.8386630  64.7764400  72.1905030  78.3847090  72.8520000
  71.7968420  79.2322300  73.0592780  71.5023430  77.7473460  73.0428640
  69.4922080  76.3075550  66.8850080  69.2035130  76.8778410  67.5975060
  70.2367840  75.8280000  67.2481310  69.6792310  80.2495670  58.0952800
  69.5966980  81.1926430  58.2367790  69.3275370  80.1070580  57.2165150
  81.0413050  82.3080500  68.7570660  80.3094170  82.8167310  69.1060760
  80.6437390  81.4910480  68.4559440  77.4790440  78.9834700  67.1623150
  77.4826500  78.5424650  66.3127690  78.3741560  79.3052030  67.2694970
  73.3292820  78.8661190  66.1217360  72.9892870  79.3436420  66.8784410
  72.5670140  78.4126310  65.7618460  77.5410590  79.9846780  60.1529910
  77.6623410  79.9433260  61.1015730  77.1559100  80.8470930  59.9976640
  81.5038960  77.7614180  68.1693600  81.5211700  78.2122830  69.0135450
  81.2554540  76.8619820  68.3827040  76.5532090  82.2947920  59.5513210
  75.9848990  81.8466170  58.9249120  77.2621090  82.6540700  59.0178360
  84.9309710  75.1746360  74.0079980  85.2555480  74.4436020  74.5337960
  84.9666220  74.8560000  73.1060970  71.6301270  86.1959940  73.4279940
  71.2456060  85.5553610  74.0262900  71.9413460  86.8996060  73.9974670
  77.7798410  83.0436480  68.9088560  78.1468540  82.5695050  69.6549900
  77.5903470  83.9178050  69.2496900  70.6438900  77.7880170  65.0382030
  70.3585820  77.4235840  65.8760650  70.5817760  77.0560630  64.4245170
  75.5697780  82.0845120  71.2272770  75.2654850  82.9637100  71.4523130
  76.5244240  82.1444910  71.2630210  74.0979570  86.2906110  61.8239620
  73.3241830  85.7503730  61.6638340  74.8274200  85.7712720  61.4857380
  84.8567550  85.2871470  67.6166010  85.5766670  85.7826760  67.2262120
  84.6549370  84.6089360  66.9719880  80.3177490  76.6809430  61.7595400
  79.5042100  76.1822600  61.6840710  80.1239440  77.5207680  61.3431750
  80.2386350  85.3580530  73.5035010  80.1723660  84.4376200  73.2492600
  79.6091490  85.4555970  74.2179650  83.0325880  81.0529080  60.0557560
  83.9205500  81.3646310  59.8808900  83.0030970  80.1801330  59.6638140
  74.1416970  85.9586490  65.4618430  74.6595640  85.1554750  65.4075320
  73.6900990  85.8965630  66.3035260  79.0286470  87.2252770  60.7345730
  79.3702170  87.9695000  60.2389050  78.1999180  87.5383890  61.0970560
  71.6261510  82.9247860  72.3744130  71.2676450  83.5901710  72.9617470
  71.3316070  82.0931410  72.7456750  74.8274630  83.3832100  75.2583680
  74.5274770  83.5289280  74.3611500  75.5985870  82.8237390  75.1657070
  80.1703080  88.1801100  73.2538810  80.1847620  87.2482060  73.0357720
  79.4628180  88.2660860  73.8928580  85.3040150  82.3640920  59.5237420
  85.2203870  82.7955140  58.6733860  86.0234340  82.8239270  59.9564240
  86.3814290  84.8208440  72.6007390  85.6562480  85.4137220  72.4036780
  86.9089750  84.8131980  71.8020760  86.3327400  89.2183180  62.2519550
  85.6903560  88.5638800  62.5263270  85.9458060  89.6238270  61.4760220
  81.9113880  86.5468610  66.0991240  82.2637700  85.9496740  65.4392610
  81.0276210  86.2212840  66.2699490  77.9977160  87.3066300  63.5061650
  78.6848290  87.8535510  63.8869240  77.2109580  87.8507030  63.5411260
  70.1369560  82.9239120  58.9978730  71.0064410  83.2063920  59.2814650
  69.6459880  83.7374990  58.8827540  77.3004370  84.3112330  63.1187010
  77.7567150  85.1217580  63.3447200  76.9492580  83.9935470  63.9505500
  79.6036980  89.8218670  70.3479310  80.2479200  90.0278050  71.0252730
  79.9666420  89.0607070  69.8950160  73.2016150  74.6549980  63.5909530
  73.0730780  74.6467880  64.5394450  72.3778170  74.9933070  63.2400540
  80.8769060  87.8251020  69.0656760  81.5191290  87.1244180  69.1788930
  81.4018410  88.6049460  68.8853650  84.7224780  88.1099640  58.7895900
  84.4962360  87.3930080  59.3820540  84.3320980  87.8612080  57.9517650
  82.6506680  88.6245920  72.2692820  82.9862920  89.2112610  72.9470740
  81.7307020  88.4938630  72.4990610  70.2010080  76.4141100  73.0516230
  69.4868600  76.6138020  73.6568840  70.6205120  75.6380670  73.4231030
  84.3041030  86.0271580  60.4510060  84.0162730  86.4884270  61.2387940
  85.0993200  85.5669350  60.7194280  78.4795260  88.6737250  75.4380880
  78.1592130  87.9546490  75.9826570  77.8053620  89.3492320  75.5116940
  76.5209430  89.5197700  60.3814030  76.5119530  90.2527390  59.7658540
  75.6007790  89.2729280  60.4740990  72.1216070  84.7412590  61.1260790
  71.5144020  85.4811490  61.1356090  72.5965420  84.8311950  60.2998990
  81.6948860  78.9063410  70.8017680  82.0629680  78.0858620  71.1297250
  80.8347060  78.9665300  71.2173330  85.0610890  77.8620350  61.6105240
  84.4324050  77.9666020  60.8963470  84.5662810  78.0817130  62.3999120
  79.5069030  89.5825940  59.0439220  79.6081010  89.3789930  58.1141200
  78.6070770  89.3284220  59.2487000  77.0294920  80.1406300  63.0263120
  76.3211070  80.6092640  63.4676730  77.3139400  79.4828310  63.6608310
  78.6550850  81.5603000  71.0255650  79.1536100  82.0348820  71.6907500
  78.7973800  80.6366520  71.2325680  81.0610350  76.8656960  64.4658910
  80.9378130  76.8843090  63.5168420  82.0094910  76.9135900  64.5857310
  75.2329940  78.4491380  60.4013830  76.0820470  78.8861530  60.3354020
  74.8661210  78.7611640  61.2285890  85.8617710  77.7770960  71.8684040
  85.3591310  78.5176360  72.2077850  86.6774370  78.1654960  71.5520830
  84.1539720  83.0204140  65.3145400  83.2129860  83.0354370  65.4893090
  84.4683790  82.2340100  65.7605700  74.1321360  84.7023740  58.8749360
  74.8984630  84.5905100  59.4374790  74.2096050  84.0061710  58.2226130
  72.8268120  82.1348810  59.5582250  72.9071710  81.1876320  59.6699650
  73.7187870  82.4655690  59.6642910  70.5128310  88.3517770  62.5358300
  69.5868090  88.5938910  62.5263710  70.9784740  89.1792030  62.4143050
  70.3538920  83.9563730  74.7938420  70.8577940  83.3771010  75.3654650
  69.6146340  84.2403960  75.3314790  77.2562540  86.6777920  58.3484710
  77.1513180  86.0630270  59.0746090  77.0886760  86.1543810  57.5647720
  77.4076860  85.3634720  74.3273940  76.6422530  85.9319720  74.2428610
  77.5892820  85.0710930  73.4342170  80.4965270  85.7397950  58.9526700
  79.9475370  86.1867250  59.5969440  81.1184530  85.2347200  59.4764370
  84.5500210  87.0940050  74.8848960  85.2909680  87.4315810  74.3816420
  83.7872890  87.2632110  74.3318730  76.1640390  84.6988870  60.8492000
  76.5856810  84.5328740  61.6923390  76.2891230  83.8889100  60.3547140
  74.3267810  80.6785420  73.6562980  73.7964270  80.1876370  73.0286320
  74.9955880  81.1069620  73.1220910  78.6768030  83.7226480  58.0969100
  79.1973690  83.0075500  57.7310250  79.3236430  84.3612350  58.3969610
  83.2245870  85.1454880  73.4204170  83.6386890  85.2999960  74.2694590
  82.2896870  85.2710100  73.5829950  83.6968040  82.4851040  75.4243320
  84.2788810  81.7303360  75.3363800  83.8729810  83.0158480  74.6474800
  74.8140110  77.6447790  73.7360270  74.7196980  77.0268540  73.0111140
  74.2337500  78.3714080  73.5090180  77.5801550  76.2021030  70.7687660
  77.1318850  76.2245290  69.9233210  76.9466750  75.8040050  71.3657960
  77.9861100  85.0975360  71.3900100  78.4049210  85.9408090  71.2176340
  77.0669730  85.2347400  71.1606880  80.3225000  82.8291540  72.7737940
  80.4421210  82.2332680  73.5132780  81.1819000  82.8661230  72.3539240
  82.6612900  83.3828730  71.3500450  82.1348120  83.9071350  70.7465590
  83.0044240  84.0156120  71.9810180  75.0599290  80.7722100  57.7950160
  74.8588350  79.9089460  58.1563500  74.8891340  80.6855460  56.8571760
  77.0893770  79.3712890  74.0313760  77.6793460  79.0628740  74.7191580
  76.2714010  78.8992640  74.1873660  81.9087200  78.9878700  74.2646780
  81.2202720  78.3260240  74.1996770  82.6293220  78.5416970  74.7095240
  82.5387600  75.5830330  60.3237040  82.8189890  74.7398230  60.6796460
  81.7653330  75.8153440  60.8375790  73.8582090  77.8722720  57.7828040
  74.1607990  77.8790150  56.8747190  74.5976680  77.5220580  58.2795700
  77.0767020  76.8157340  58.7684240  76.7289020  76.1381330  58.1886690
  77.2779790  76.3546850  59.5827630  72.8812220  87.1765140  58.6157840
  73.3187090  87.7194810  59.2715420  73.3659950  86.3512090  58.6254180
  70.0958020  89.9654170  66.0678100  70.4261030  89.0975230  65.8356740
  70.5249020  90.1712690  66.8983060  74.6919940  88.2963180  63.7280070
  74.3915480  88.1728150  64.6283980  74.5857430  87.4371770  63.3195800
  86.2210410  90.3341760  73.0937040  85.6212400  90.3934320  72.3500960
  86.3504310  89.3946740  73.2233890  87.4611860  88.0759580  58.4306750
  86.6304820  88.1436230  58.9013980  87.6383690  88.9663700  58.1273610
  86.9168320  84.8207060  60.9340950  87.6787230  85.3903710  61.0400640
  86.9322690  84.2534260  61.7049260  70.4172660  83.3444990  65.1648610
  69.7621500  83.0756630  64.5208310  71.2550610  83.2349470  64.7150590
  87.9228290  85.6757160  65.7782880  88.2937120  84.8924480  65.3718850
  88.5630220  86.3646260  65.6000180  84.9062050  87.0593740  71.1913200
  84.0921890  87.4890900  71.4538990  85.3136250  87.6712150  70.5782250
  86.9687490  85.1141430  58.0913470  87.2436330  86.0220310  57.9632690
  86.7798230  85.0503960  59.0275460  83.3663100  78.1386280  59.3867100
  83.7847980  77.9517260  58.5463760  83.0599160  77.2865330  59.6970030
  86.8652830  83.0510420  63.0842900  86.4896430  82.2838350  62.6524190
  86.1355950  83.4333120  63.5717830  71.4548590  83.7297560  69.7051950
  71.8221630  83.6424960  70.5847970  70.8859410  82.9664110  69.6058810
  86.2552450  82.1981940  72.7182420  86.0238540  81.9694690  71.8180370
  86.5157000  83.1181490  72.6727310  71.0064590  80.6406650  73.6110370
  70.1120640  80.6073410  73.9504080  71.5462140  80.8393440  74.3761620
  84.6940520  77.4238370  75.4962120  85.5710700  77.4321770  75.8796120
  84.7061360  76.6869210  74.8854470  69.6310740  80.5543920  61.1073940
  68.7274820  80.8174120  60.9325600  70.1151360  80.8255090  60.3273900
  86.1403790  81.2767910  66.3850140  86.6641270  80.7830560  65.7540310
  86.7263210  81.4118270  67.1297710  86.3193510  81.3607780  69.9069690
  85.3696220  81.3271320  70.0214680  86.5006520  82.2707890  69.6719460
  72.1737950  79.6109460  59.0168320  72.8829650  79.1892680  58.5315600
  71.4577890  79.6784690  58.3851670  71.8212110  75.6648790  58.0570970
  72.5440240  76.2057730  58.3752190  72.0936630  75.3912210  57.1812510
  85.6303760  80.5341260  62.3242550  86.1262880  80.3012130  63.1091430
  85.4319830  79.6953100  61.9080190  71.5104300  74.9154980  67.9593590
  72.1580490  74.3652360  67.5188750  71.9306140  75.1698130  68.7809400
  87.0590920  79.1702210  64.8580230  86.9490200  79.0158250  65.7962500
  87.8198510  78.6423150  64.6155640  85.4056640  75.1096340  71.3163230
  86.0428860  75.7230480  71.6822420  85.5531530  75.1457000  70.3712460
  87.9481190  77.0010130  58.0986370  88.8730500  76.8691310  57.8904660
  87.9256980  77.0802950  59.0522820  88.0219680  77.7720790  60.7243080
  87.2271180  77.7065910  61.2535990  88.2262960  78.7071430  60.7128430
  71.2636300  75.0710650  70.7018910  70.9151120  75.5274470  71.4677090
  70.9324000  74.1767780  70.7841340  72.8700670  88.2430250  74.8672100
  72.8270300  87.8723160  75.7486560  73.0011680  89.1807820  75.0073920
  76.5706700  89.7989840  70.4681820  76.3298060  90.0664400  69.5812340
  77.5109340  89.9695570  70.5232680  78.7761120  76.2622530  74.2238330
  78.7150010  76.8544360  74.9733740  79.7161500  76.1548490  74.0788590
  81.4135680  75.9192590  73.8630620  82.0276090  76.2371880  73.2011700
  81.9585240  75.4341180  74.4826480  71.9356940  74.5986850  73.9769680
  72.4839930  74.4174900  73.2135790  72.0012250  73.8080960  74.5125990
  82.1543720  74.4824730  70.1899910  81.2803560  74.8159840  69.9872840
  82.0454470  74.0097910  71.0151780  83.0615700  76.6895600  71.5741630
  82.7329060  75.8747360  71.1943360  84.0098000  76.6465410  71.4507320
  72.3400930  88.5550880  70.9377920  71.6134990  87.9356170  70.8703870
  72.4010080  88.9491490  70.0676000  79.9018540  75.3994570  69.1292820
  79.1190330  75.8740070  69.4089580  79.6081470  74.4949400  69.0206000
  84.4539610  76.1017670  67.1741910  84.8947700  76.0462770  66.3263510
  84.1847200  77.0175680  67.2452090  86.3178180  75.7332910  65.1850730
  86.2566580  74.7894130  65.0381750  87.0970210  75.8413000  65.7304190
  71.2458950  75.7042050  61.6506540  72.0038310  75.8170930  61.0770570
  70.7836120  76.5411250  61.6049970  77.7872760  77.8181320  64.6408850
  76.9747270  77.4438210  64.3004730  78.2914400  77.0626400  64.9430040
  82.2897740  74.4823770  65.8791920  82.8927110  75.0543980  66.3540440
  81.5490730  75.0463210  65.6565820  85.4332340  74.8845330  61.1532200
  85.6282970  75.7828780  61.4199630  84.6462210  74.6532410  61.6465150
  73.6184100  76.2306100  60.1908510  74.1476860  75.4435900  60.0616460
  74.2512420  76.9097290  60.4244040  75.8121940  75.9681240  63.2453900
  75.1824680  75.2668550  63.4124030  75.2727080  76.7285370  63.0287060
  75.9377500  75.2465220  75.6806390  75.6561770  75.7498820  74.9167210
  76.3197200  74.4486970  75.3148520  73.9901390  88.6305610  60.4720400
  73.3610270  89.0990710  61.0206230  74.1049220  87.7854830  60.9066590
  81.4451110  82.6811270  46.6221600  81.3645160  81.7665880  46.3513310
  81.0315530  83.1778340  45.9161310  79.5769150  84.4590290  48.5030870
  78.8011250  83.9790730  48.7929440  80.2282080  83.7795940  48.3287030
  73.5934980  84.7710100  49.3806630  72.7619860  84.5158810  49.7803140
  74.2015960  84.8420870  50.1164550  83.5976580  88.8650480  47.2830000
  83.1358110  88.0937720  47.6117170  84.4102130  88.8916550  47.7882450
  73.5736240  88.8050190  49.5764650  73.8764280  87.9147930  49.3974870
  74.3179830  89.3620410  49.3486900  72.0026930  79.7311990  43.1649020
  71.1143630  80.0727960  43.0628900  72.2868120  79.5312310  42.2729850
  69.9659940  82.3317640  49.0488720  70.5376050  81.5639840  49.0492360
  69.9661480  82.6306400  48.1395330  79.0178140  87.1347480  48.5101030
  78.9486420  86.1937420  48.3490160  79.7798000  87.2248890  49.0823600
  71.2084810  77.7402000  50.8357650  71.0287650  76.8427750  51.1160410
  70.8064890  78.2873870  51.5104600  80.0483310  79.9417860  48.7369960
  80.4248130  79.0689740  48.6243630  79.9502820  80.2776560  47.8460400
  74.1788320  78.3143490  44.1987400  74.2855070  79.2147220  44.5056160
  73.2680680  78.2661460  43.9082050  83.8307430  77.4368300  45.6698300
  84.6517050  76.9464870  45.7123780  83.8641510  78.0265960  46.4230140
  71.8271480  80.2362500  49.4439990  72.5081590  80.5000870  50.0627390
  71.5119530  79.3963370  49.7778000  76.0196050  81.2829860  48.5312580
  76.5274270  81.7810830  49.1717600  76.5509290  80.5065060  48.3551940
  88.1206980  79.4535050  52.2341930  87.4159150  79.8416760  51.7157040
  88.3864900  80.1485340  52.8362860  74.3032150  75.9228420  52.7976000
  74.3050590  76.4400810  51.9921900  73.4736460  75.4458600  52.7745930
  80.6903240  86.0347730  44.2965900  80.0720510  86.4997180  43.7328620
  81.2026490  86.7275210  44.7135410  75.5535000  85.5623600  50.9749500
  75.2204380  86.1892520  51.6170570  75.7301680  86.0885480  50.1951170
  84.0668910  79.3768680  48.4425840  83.3624480  79.6653570  49.0228950
  84.4281070  80.1868790  48.0825400  73.9847480  77.6338380  50.8046450
  74.3264290  78.4780430  50.5100320  73.0463290  77.7822120  50.9211790
  74.7654100  87.5304400  52.7898680  75.3828100  88.2055480  52.5083130
  73.9047220  87.9392380  52.6986180  70.0586440  86.7204260  41.6705530
  69.6814420  87.2091360  40.9390430  70.3159510  87.3929540  42.3012060
  85.6831690  88.9943810  50.7053320  84.9995210  89.6642920  50.6969990
  86.2225980  89.1924460  49.9398180  87.1355830  78.8223470  48.8335050
  86.1880740  78.8562450  48.9650480  87.4605820  79.6362420  49.2184410
  77.6675370  75.1220650  47.1291040  77.9750350  74.5667540  46.4126540
  76.7376070  75.2565110  46.9464030  84.5135850  87.5604160  44.5088670
  84.4032180  86.6178490  44.6338090  84.5104100  87.9219800  45.3951430
  82.6175870  85.7417780  50.7481110  83.0344660  85.5277890  49.9134570
  83.3415690  85.9990570  51.3189730  80.0556130  83.1869480  43.8651160
  79.1285410  83.1206860  44.0939630  80.2080950  84.1249610  43.7506400
  80.0425210  79.4586480  40.8618320  79.1028880  79.6200440  40.9470780
  80.3608470  80.1772160  40.3154310  86.5637970  84.1405000  50.8397350
  85.7356600  84.2098090  50.3647480  87.1588450  84.7259310  50.3713180
  84.0853420  84.7489780  44.3686410  83.4665840  84.4109330  43.7212710
  84.0677870  84.1049540  45.0765600  83.5279980  80.9274320  51.7852220
  83.1151160  81.7528030  52.0392210  82.7955930  80.3419360  51.5928580
  75.6612770  83.7134220  46.6470890  75.2569770  83.0011470  46.1516790
  75.7475890  83.3687460  47.5358930  76.1294470  87.4001780  48.8110100
  75.8322760  86.7947250  48.1317880  77.0794290  87.4379090  48.6999460
  74.3741390  80.4877430  50.4269930  74.9255980  80.5972770  49.6523180
  74.8884900  80.8615030  51.1425160  75.2212900  87.1383470  55.4617900
  74.3241430  87.3623440  55.7091300  75.2465770  87.2618410  54.5129300
  82.2618120  83.9876590  41.3759160  82.7011400  83.1499020  41.2296980
  82.9746540  84.6205990  41.4623300  74.0484120  84.0096790  54.0375270
  73.9091890  84.8819590  54.4062670  73.1665480  83.6669600  53.8923210
  80.3713500  88.9272660  45.3440400  80.8109410  89.6696990  44.9295790
  80.3100390  89.1699230  46.2679360  75.8464470  89.9518490  56.2460420
  75.8179900  90.3561440  55.3788850  75.6829440  89.0228850  56.0832020
  85.8435260  75.2419400  39.6900200  85.5307920  75.3346230  40.5899270
  86.6047730  75.8200430  39.6397630  72.3617400  82.6079200  44.1477540
  72.2415000  83.3341290  43.5358810  72.0518290  81.8382110  43.6705450
  70.0002770  85.7794340  49.9546180  70.0783190  85.9143110  49.0101900
  70.6144450  85.0710230  50.1474300  71.2450400  87.4794530  46.3652360
  70.8378480  87.6209120  45.5105960  72.1363410  87.1954690  46.1623570
  87.2012540  87.9258440  54.7024600  87.3275600  87.6870320  53.7841780
  87.2433920  87.0942980  55.1746680  82.7409810  89.4229340  41.2601410
  82.0474970  89.4206630  40.6003690  83.4832670  88.9988660  40.8295580
  87.0536550  79.9790900  55.6674340  86.4380820  80.4870570  55.1389800
  86.7332970  79.0789230  55.6100280  70.0562290  86.8208510  52.4940640
  70.2193330  86.3513870  51.6760010  70.5214740  86.3132070  53.1589480
  74.8281060  75.9514270  47.5301210  74.3849210  76.7323810  47.1985730
  75.3866050  76.2744160  48.2372150  79.1150870  78.8182790  53.1336530
  78.6530240  79.0265810  53.9456470  78.7128980  78.0042140  52.8307200
  84.1155380  80.0391740  54.2633190  83.2648970  79.7397490  54.5842260
  83.9557170  80.2833750  53.3517010  81.2105090  81.5393490  56.3631980
  81.5358500  80.7057240  56.0234210  81.9985420  82.0622010  56.5110310
  77.9439880  75.5724970  42.4107040  77.3194060  75.5684840  43.1360350
  77.8570000  74.7055930  42.0143010  76.8656960  76.4961600  49.3890810
  77.1629290  77.4024430  49.3082830  77.4142520  76.0080380  48.7750380
  74.6195280  81.0747840  45.2582460  74.3936200  80.8585010  46.1629080
  73.8387810  81.5076300  44.9128430  81.8493040  81.0811210  43.8573110
  81.2501930  81.8047010  43.6736730  82.3972650  81.0187990  43.0749560
  77.0594490  81.9733420  55.9242730  76.9638090  81.0328150  55.7743130
  77.9026470  82.1948490  55.5290800  80.4557910  79.7174750  45.8876390
  80.8487480  80.0346950  45.0745080  80.8174760  78.8386630  46.0020910
  72.1905030  78.3847090  54.0776510  71.7968420  79.2322300  54.2849290
  71.5023430  77.7473460  54.2685150  78.7650080  78.4682060  57.1473250
  78.0748400  78.2754260  57.7819340  79.5082380  78.7516700  57.6797550
  69.4922080  76.3075550  48.1106590  69.2035130  76.8778410  48.8231570
  70.2367840  75.8280000  48.4737820  69.6792310  80.2495670  39.3209310
  69.5966980  81.1926430  39.4624300  69.3275370  80.1070580  38.4421660
  81.0413050  82.3080500  49.9827170  80.3094170  82.8167310  50.3317270
  80.6437390  81.4910480  49.6815950  77.4790440  78.9834700  48.3879660
  77.4826500  78.5424650  47.5384200  78.3741560  79.3052030  48.4951480
  73.3292820  78.8661190  47.3473870  72.9892870  79.3436420  48.1040920
  72.5670140  78.4126310  46.9874970  77.5410590  79.9846780  41.3786420
  77.6623410  79.9433260  42.3272240  77.1559100  80.8470930  41.2233150
  81.5038960  77.7614180  49.3950110  81.5211700  78.2122830  50.2391960
  81.2554540  76.8619820  49.6083550  76.5532090  82.2947920  40.7769720
  75.9848990  81.8466170  40.1505630  77.2621090  82.6540700  40.2434870
  84.9309710  75.1746360  55.2336490  85.2555480  74.4436020  55.7594470
  84.9666220  74.8560000  54.3317480  71.6301270  86.1959940  54.6536450
  71.2456060  85.5553610  55.2519410  71.9413460  86.8996060  55.2231180
  77.7798410  83.0436480  50.1345070  78.1468540  82.5695050  50.8806410
  77.5903470  83.9178050  50.4753410  70.6438900  77.7880170  46.2638540
  70.3585820  77.4235840  47.1017160  70.5817760  77.0560630  45.6501680
  75.5697780  82.0845120  52.4529280  75.2654850  82.9637100  52.6779640
  76.5244240  82.1444910  52.4886720  74.0979570  86.2906110  43.0496130
  73.3241830  85.7503730  42.8894850  74.8274200  85.7712720  42.7113890
  84.8567550  85.2871470  48.8422520  85.5766670  85.7826760  48.4518630
  84.6549370  84.6089360  48.1976390  80.3177490  76.6809430  42.9851910
  79.5042100  76.1822600  42.9097220  80.1239440  77.5207680  42.5688260
  80.2386350  85.3580530  54.7291520  80.1723660  84.4376200  54.4749110
  79.6091490  85.4555970  55.4436160  83.0325880  81.0529080  41.2814070
  83.9205500  81.3646310  41.1065410  83.0030970  80.1801330  40.8894650
  74.1416970  85.9586490  46.6874940  74.6595640  85.1554750  46.6331830
  73.6900990  85.8965630  47.5291770  79.0286470  87.2252770  41.9602240
  79.3702170  87.9695000  41.4645560  78.1999180  87.5383890  42.3227070
  71.6261510  82.9247860  53.6000640  71.2676450  83.5901710  54.1873980
  71.3316070  82.0931410  53.9713260  74.8274630  83.3832100  56.4840190
  74.5274770  83.5289280  55.5868010  75.5985870  82.8237390  56.3913580
  80.1703080  88.1801100  54.4795320  80.1847620  87.2482060  54.2614230
  79.4628180  88.2660860  55.1185090  85.3040150  82.3640920  40.7493930
  85.2203870  82.7955140  39.8990370  86.0234340  82.8239270  41.1820750
  86.3814290  84.8208440  53.8263900  85.6562480  85.4137220  53.6293290
  86.9089750  84.8131980  53.0277270  86.3327400  89.2183180  43.4776060
  85.6903560  88.5638800  43.7519780  85.9458060  89.6238270  42.7016730
  81.9113880  86.5468610  47.3247750  82.2637700  85.9496740  46.6649120
  81.0276210  86.2212840  47.4956000  77.9977160  87.3066300  44.7318160
  78.6848290  87.8535510  45.1125750  77.2109580  87.8507030  44.7667770
  70.1369560  82.9239120  40.2235240  71.0064410  83.2063920  40.5071160
  69.6459880  83.7374990  40.1084050  77.3004370  84.3112330  44.3443520
  77.7567150  85.1217580  44.5703710  76.9492580  83.9935470  45.1762010
  79.6036980  89.8218670  51.5735820  80.2479200  90.0278050  52.2509240
  79.9666420  89.0607070  51.1206670  73.2016150  74.6549980  44.8166040
  73.0730780  74.6467880  45.7650960  72.3778170  74.9933070  44.4657050
  80.8769060  87.8251020  50.2913270  81.5191290  87.1244180  50.4045440
  81.4018410  88.6049460  50.1110160  84.7224780  88.1099640  40.0152410
  84.4962360  87.3930080  40.6077050  84.3320980  87.8612080  39.1774160
  82.6506680  88.6245920  53.4949330  82.9862920  89.2112610  54.1727250
  81.7307020  88.4938630  53.7247120  70.2010080  76.4141100  54.2772740
  69.4868600  76.6138020  54.8825350  70.6205120  75.6380670  54.6487540
  84.3041030  86.0271580  41.6766570  84.0162730  86.4884270  42.4644450
  85.0993200  85.5669350  41.9450790  78.4795260  88.6737250  56.6637390
  78.1592130  87.9546490  57.2083080  77.8053620  89.3492320  56.7373450
  76.5209430  89.5197700  41.6070540  76.5119530  90.2527390  40.9915050
  75.6007790  89.2729280  41.6997500  72.1216070  84.7412590  42.3517300
  71.5144020  85.4811490  42.3612600  72.5965420  84.8311950  41.5255500
  81.6948860  78.9063410  52.0274190  82.0629680  78.0858620  52.3553760
  80.8347060  78.9665300  52.4429840  85.0610890  77.8620350  42.8361750
  84.4324050  77.9666020  42.1219980  84.5662810  78.0817130  43.6255630
  79.5069030  89.5825940  40.2695730  79.6081010  89.3789930  39.3397710
  78.6070770  89.3284220  40.4743510  77.0294920  80.1406300  44.2519630
  76.3211070  80.6092640  44.6933240  77.3139400  79.4828310  44.8864820
  78.6550850  81.5603000  52.2512160  79.1536100  82.0348820  52.9164010
  78.7973800  80.6366520  52.4582190  81.0610350  76.8656960  45.6915420
  80.9378130  76.8843090  44.7424930  82.0094910  76.9135900  45.8113820
  75.2329940  78.4491380  41.6270340  76.0820470  78.8861530  41.5610530
  74.8661210  78.7611640  42.4542400  85.8617710  77.7770960  53.0940550
  85.3591310  78.5176360  53.4334360  86.6774370  78.1654960  52.7777340
  84.1539720  83.0204140  46.5401910  83.2129860  83.0354370  46.7149600
  84.4683790  82.2340100  46.9862210  74.1321360  84.7023740  40.1005870
  74.8984630  84.5905100  40.6631300  74.2096050  84.0061710  39.4482640
  72.8268120  82.1348810  40.7838760  72.9071710  81.1876320  40.8956160
  73.7187870  82.4655690  40.8899420  70.5128310  88.3517770  43.7614810
  69.5868090  88.5938910  43.7520220  70.9784740  89.1792030  43.6399560
  81.4705740  87.5770140  57.0234290  80.8643900  87.6001740  56.2830040
  81.1659850  86.8453180  57.5601540  70.3538920  83.9563730  56.0194930
  70.8577940  83.3771010  56.5911160  69.6146340  84.2403960  56.5571300
  77.2562540  86.6777920  39.5741220  77.1513180  86.0630270  40.3002600
  77.0886760  86.1543810  38.7904230  77.4076860  85.3634720  55.5530450
  76.6422530  85.9319720  55.4685120  77.5892820  85.0710930  54.6598680
  80.4965270  85.7397950  40.1783210  79.9475370  86.1867250  40.8225950
  81.1184530  85.2347200  40.7020880  84.5500210  87.0940050  56.1105470
  85.2909680  87.4315810  55.6072930  83.7872890  87.2632110  55.5575240
  72.3862000  82.0993320  56.9145000  72.4267340  81.8007190  57.8230230
  73.2407500  82.5000930  56.7552520  76.1640390  84.6988870  42.0748510
  76.5856810  84.5328740  42.9179900  76.2891230  83.8889100  41.5803650
  74.3267810  80.6785420  54.8819490  73.7964270  80.1876370  54.2542830
  74.9955880  81.1069620  54.3477420  78.6768030  83.7226480  39.3225610
  79.1973690  83.0075500  38.9566760  79.3236430  84.3612350  39.6226120
  83.2245870  85.1454880  54.6460680  83.6386890  85.2999960  55.4951100
  82.2896870  85.2710100  54.8086460  83.6968040  82.4851040  56.6499830
  84.2788810  81.7303360  56.5620310  83.8729810  83.0158480  55.8731310
  74.8140110  77.6447790  54.9616780  74.7196980  77.0268540  54.2367650
  74.2337500  78.3714080  54.7346690  77.5801550  76.2021030  51.9944170
  77.1318850  76.2245290  51.1489720  76.9466750  75.8040050  52.5914470
  77.9861100  85.0975360  52.6156610  78.4049210  85.9408090  52.4432850
  77.0669730  85.2347400  52.3863390  80.3225000  82.8291540  53.9994450
  80.4421210  82.2332680  54.7389290  81.1819000  82.8661230  53.5795750
  82.6612900  83.3828730  52.5756960  82.1348120  83.9071350  51.9722100
  83.0044240  84.0156120  53.2066690  75.0599290  80.7722100  39.0206670
  74.8588350  79.9089460  39.3820010  74.8891340  80.6855460  38.0828270
  77.0893770  79.3712890  55.2570270  77.6793460  79.0628740  55.9448090
  76.2714010  78.8992640  55.4130170  81.9087200  78.9878700  55.4903290
  81.2202720  78.3260240  55.4253280  82.6293220  78.5416970  55.9351750
  73.8582090  77.8722720  39.0084550  74.1607990  77.8790150  38.1003700
  74.5976680  77.5220580  39.5052210  72.8812220  87.1765140  39.8414350
  73.3187090  87.7194810  40.4971930  73.3659950  86.3512090  39.8510690
  70.0958020  89.9654170  47.2934610  70.4261030  89.0975230  47.0613250
  70.5249020  90.1712690  48.1239570  74.6919940  88.2963180  44.9536580
  74.3915480  88.1728150  45.8540490  74.5857430  87.4371770  44.5452310
  86.2210410  90.3341760  54.3193550  85.6212400  90.3934320  53.5757470
  86.3504310  89.3946740  54.4490400  87.4611860  88.0759580  39.6563260
  86.6304820  88.1436230  40.1270490  87.6383690  88.9663700  39.3530120
  86.9168320  84.8207060  42.1597460  87.6787230  85.3903710  42.2657150
  86.9322690  84.2534260  42.9305770  70.4172660  83.3444990  46.3905120
  69.7621500  83.0756630  45.7464820  71.2550610  83.2349470  45.9407100
  87.9228290  85.6757160  47.0039390  88.2937120  84.8924480  46.5975360
  88.5630220  86.3646260  46.8256690  84.9062050  87.0593740  52.4169710
  84.0921890  87.4890900  52.6795500  85.3136250  87.6712150  51.8038760
  86.9687490  85.1141430  39.3169980  87.2436330  86.0220310  39.1889200
  86.7798230  85.0503960  40.2531970  83.3663100  78.1386280  40.6123610
  83.7847980  77.9517260  39.7720270  83.0599160  77.2865330  40.9226540
  86.8652830  83.0510420  44.3099410  86.4896430  82.2838350  43.8780700
  86.1355950  83.4333120  44.7974340  71.4548590  83.7297560  50.9308460
  71.8221630  83.6424960  51.8104480  70.8859410  82.9664110  50.8315320
  86.2552450  82.1981940  53.9438930  86.0238540  81.9694690  53.0436880
  86.5157000  83.1181490  53.8983820  71.0064590  80.6406650  54.8366880
  70.1120640  80.6073410  55.1760590  71.5462140  80.8393440  55.6018130
  84.6940520  77.4238370  56.7218630  85.5710700  77.4321770  57.1052630
  84.7061360  76.6869210  56.1110980  69.6310740  80.5543920  42.3330450
  68.7274820  80.8174120  42.1582110  70.1151360  80.8255090  41.5530410
  86.1403790  81.2767910  47.6106650  86.6641270  80.7830560  46.9796820
  86.7263210  81.4118270  48.3554220  86.3193510  81.3607780  51.1326200
  85.3696220  81.3271320  51.2471190  86.5006520  82.2707890  50.8975970
  72.1737950  79.6109460  40.2424830  72.8829650  79.1892680  39.7572110
  71.4577890  79.6784690  39.6108180  71.8212110  75.6648790  39.2827480
  72.5440240  76.2057730  39.6008700  72.0936630  75.3912210  38.4069020
  85.6303760  80.5341260  43.5499060  86.1262880  80.3012130  44.3347940
  85.4319830  79.6953100  43.1336700  71.5104300  74.9154980  49.1850100
  72.1580490  74.3652360  48.7445260  71.9306140  75.1698130  50.0065910
  87.0590920  79.1702210  46.0836740  86.9490200  79.0158250  47.0219010
  87.8198510  78.6423150  45.8412150  85.4056640  75.1096340  52.5419740
  86.0428860  75.7230480  52.9078930  85.5531530  75.1457000  51.5968970
  87.9481190  77.0010130  39.3242880  88.8730500  76.8691310  39.1161170
  87.9256980  77.0802950  40.2779330  88.0219680  77.7720790  41.9499590
  87.2271180  77.7065910  42.4792500  88.2262960  78.7071430  41.9384940
  71.2636300  75.0710650  51.9275420  70.9151120  75.5274470  52.6933600
  70.9324000  74.1767780  52.0097850  72.8700670  88.2430250  56.0928610
  72.8270300  87.8723160  56.9743070  73.0011680  89.1807820  56.2330430
  76.5706700  89.7989840  51.6938330  76.3298060  90.0664400  50.8068850
  77.5109340  89.9695570  51.7489190  78.7761120  76.2622530  55.4494840
  78.7150010  76.8544360  56.1990250  79.7161500  76.1548490  55.3045100
  81.4135680  75.9192590  55.0887130  82.0276090  76.2371880  54.4268210
  81.9585240  75.4341180  55.7082990  71.9356940  74.5986850  55.2026190
  72.4839930  74.4174900  54.4392300  72.0012250  73.8080960  55.7382500
  82.1543720  74.4824730  51.4156420  81.2803560  74.8159840  51.2129350
  82.0454470  74.0097910  52.2408290  83.0615700  76.6895600  52.7998140
  82.7329060  75.8747360  52.4199870  84.0098000  76.6465410  52.6763830
  72.3400930  88.5550880  52.1634430  71.6134990  87.9356170  52.0960380
  72.4010080  88.9491490  51.2932510  79.9018540  75.3994570  50.3549330
  79.1190330  75.8740070  50.6346090  79.6081470  74.4949400  50.2462510
  84.4539610  76.1017670  48.3998420  84.8947700  76.0462770  47.5520020
  84.1847200  77.0175680  48.4708600  86.3178180  75.7332910  46.4107240
  86.2566580  74.7894130  46.2638260  87.0970210  75.8413000  46.9560700
  71.2458950  75.7042050  42.8763050  72.0038310  75.8170930  42.3027080
  70.7836120  76.5411250  42.8306480  77.7872760  77.8181320  45.8665360
  76.9747270  77.4438210  45.5261240  78.2914400  77.0626400  46.1686550
  82.2897740  74.4823770  47.1048430  82.8927110  75.0543980  47.5796950
  81.5490730  75.0463210  46.8822330  73.6184100  76.2306100  41.4165020
  74.1476860  75.4435900  41.2872970  74.2512420  76.9097290  41.6500550
  75.8121940  75.9681240  44.4710410  75.1824680  75.2668550  44.6380540
  75.2727080  76.7285370  44.2543570  75.9377500  75.2465220  56.9062900
  75.6561770  75.7498820  56.1423720  76.3197200  74.4486970  56.5405030
  73.9901390  88.6305610  41.6976910  73.3610270  89.0990710  42.2462740
  74.1049220  87.7854830  42.1323100  82.5392960  74.6618800  57.4843370
  82.4258410  74.9813410  58.3794890  83.3562700  75.0631310  57.1880650
  81.4451110  82.6811270  27.8478110  81.3645160  81.7665880  27.5769820
  81.0315530  83.1778340  27.1417820  79.5769150  84.4590290  29.7287380
  78.8011250  83.9790730  30.0185950  80.2282080  83.7795940  29.5543540
  73.5934980  84.7710100  30.6063140  72.7619860  84.5158810  31.0059650
  74.2015960  84.8420870  31.3421060  83.5976580  88.8650480  28.5086510
  83.1358110  88.0937720  28.8373680  84.4102130  88.8916550  29.0138960
  73.5736240  88.8050190  30.8021160  73.8764280  87.9147930  30.6231380
  74.3179830  89.3620410  30.5743410  72.0026930  79.7311990  24.3905530
  71.1143630  80.0727960  24.2885410  72.2868120  79.5312310  23.4986360
  69.9659940  82.3317640  30.2745230  70.5376050  81.5639840  30.2748870
  69.9661480  82.6306400  29.3651840  79.0178140  87.1347480  29.7357540
  78.9486420  86.1937420  29.5746670  79.7798000  87.2248890  30.3080110
  71.2084810  77.7402000  32.0614160  71.0287650  76.8427750  32.3416920
  70.8064890  78.2873870  32.7361110  80.0483310  79.9417860  29.9626470
  80.4248130  79.0689740  29.8500140  79.9502820  80.2776560  29.0716910
  74.1788320  78.3143490  25.4243910  74.2855070  79.2147220  25.7312670
  73.2680680  78.2661460  25.1338560  83.8307430  77.4368300  26.8954810
  84.6517050  76.9464870  26.9380290  83.8641510  78.0265960  27.6486650
  71.8271480  80.2362500  30.6696500  72.5081590  80.5000870  31.2883900
  71.5119530  79.3963370  31.0034510  88.1206980  79.4535050  33.4598440
  87.4159150  79.8416760  32.9413550  88.3864900  80.1485340  34.0619370
  80.6903240  86.0347730  25.5222410  80.0720510  86.4997180  24.9585130
  81.2026490  86.7275210  25.9391920  75.5535000  85.5623600  32.2006010
  75.2204380  86.1892520  32.8427080  75.7301680  86.0885480  31.4207680
  84.0668910  79.3768680  29.6682350  83.3624480  79.6653570  30.2485460
  84.4281070  80.1868790  29.3081910  74.7654100  87.5304400  34.0155190
  75.3828100  88.2055480  33.7339640  73.9047220  87.9392380  33.9242690
  70.0586440  86.7204260  22.8962040  69.6814420  87.2091360  22.1646940
  70.3159510  87.3929540  23.5268570  85.6831690  88.9943810  31.9309830
  84.9995210  89.6642920  31.9226500  86.2225980  89.1924460  31.1654690
  87.1355830  78.8223470  30.0591560  86.1880740  78.8562450  30.1906990
  87.4605820  79.6362420  30.4440920  84.5135850  87.5604160  25.7345180
  84.4032180  86.6178490  25.8594600  84.5104100  87.9219800  26.6207940
  82.6175870  85.7417780  31.9737620  83.0344660  85.5277890  31.1391080
  83.3415690  85.9990570  32.5446240  80.0556130  83.1869480  25.0907670
  79.1285410  83.1206860  25.3196140  80.2080950  84.1249610  24.9762910
  80.0425210  79.4586480  22.0874830  79.1028880  79.6200440  22.1727290
  80.3608470  80.1772160  21.5410820  86.5637970  84.1405000  32.0653860
  85.7356600  84.2098090  31.5903990  87.1588450  84.7259310  31.5969690
  84.0853420  84.7489780  25.5942920  83.4665840  84.4109330  24.9469220
  84.0677870  84.1049540  26.3022110  83.5279980  80.9274320  33.0108730
  83.1151160  81.7528030  33.2648720  82.7955930  80.3419360  32.8185090
  75.6612770  83.7134220  27.8727400  75.2569770  83.0011470  27.3773300
  75.7475890  83.3687460  28.7615440  76.1294470  87.4001780  30.0366610
  75.8322760  86.7947250  29.3574390  77.0794290  87.4379090  29.9255970
  75.2212900  87.1383470  36.6874410  74.3241430  87.3623440  36.9347810
  75.2465770  87.2618410  35.7385810  82.2618120  83.9876590  22.6015670
  82.7011400  83.1499020  22.4553490  82.9746540  84.6205990  22.6879810
  74.0484120  84.0096790  35.2631780  73.9091890  84.8819590  35.6319180
  73.1665480  83.6669600  35.1179720  80.3713500  88.9272660  26.5696910
  80.8109410  89.6696990  26.1552300  80.3100390  89.1699230  27.4935870
  75.8464470  89.9518490  37.4716930  75.8179900  90.3561440  36.6045360
  75.6829440  89.0228850  37.3088530  85.8435260  75.2419400  20.9156710
  85.5307920  75.3346230  21.8155780  86.6047730  75.8200430  20.8654140
  72.3617400  82.6079200  25.3734050  72.2415000  83.3341290  24.7615320
  72.0518290  81.8382110  24.8961960  70.0002770  85.7794340  31.1802690
  70.0783190  85.9143110  30.2358410  70.6144450  85.0710230  31.3730810
  71.2450400  87.4794530  27.5908870  70.8378480  87.6209120  26.7362470
  72.1363410  87.1954690  27.3880080  87.2012540  87.9258440  35.9281110
  87.3275600  87.6870320  35.0098290  87.2433920  87.0942980  36.4003190
  82.7409810  89.4229340  22.4857920  82.0474970  89.4206630  21.8260200
  83.4832670  88.9988660  22.0552090  87.0536550  79.9790900  36.8930850
  86.4380820  80.4870570  36.3646310  86.7332970  79.0789230  36.8356790
  70.0562290  86.8208510  33.7197150  70.2193330  86.3513870  32.9016520
  70.5214740  86.3132070  34.3845990  84.1155380  80.0391740  35.4889700
  83.2648970  79.7397490  35.8098770  83.9557170  80.2833750  34.5773520
  81.2105090  81.5393490  37.5888490  81.5358500  80.7057240  37.2490720
  81.9985420  82.0622010  37.7366820  77.9439880  75.5724970  23.6363550
  77.3194060  75.5684840  24.3616860  77.8570000  74.7055930  23.2399520
  74.6195280  81.0747840  26.4838970  74.3936200  80.8585010  27.3885590
  73.8387810  81.5076300  26.1384940  81.8493040  81.0811210  25.0829620
  81.2501930  81.8047010  24.8993240  82.3972650  81.0187990  24.3006070
  77.0594490  81.9733420  37.1499240  76.9638090  81.0328150  36.9999640
  77.9026470  82.1948490  36.7547310  80.4557910  79.7174750  27.1132900
  80.8487480  80.0346950  26.3001590  80.8174760  78.8386630  27.2277420
  72.1905030  78.3847090  35.3033020  71.7968420  79.2322300  35.5105800
  71.5023430  77.7473460  35.4941660  78.7650080  78.4682060  38.3729760
  78.0748400  78.2754260  39.0075850  79.5082380  78.7516700  38.9054060
  69.4922080  76.3075550  29.3363100  69.2035130  76.8778410  30.0488080
  70.2367840  75.8280000  29.6994330  69.6792310  80.2495670  20.5465820
  69.5966980  81.1926430  20.6880810  69.3275370  80.1070580  19.6678170
  81.0413050  82.3080500  31.2083680  80.3094170  82.8167310  31.5573780
  80.6437390  81.4910480  30.9072460  77.5410590  79.9846780  22.6042930
  77.6623410  79.9433260  23.5528750  77.1559100  80.8470930  22.4489660
  81.5038960  77.7614180  30.6206620  81.5211700  78.2122830  31.4648470
  81.2554540  76.8619820  30.8340060  76.5532090  82.2947920  22.0026230
  75.9848990  81.8466170  21.3762140  77.2621090  82.6540700  21.4691380
  84.9309710  75.1746360  36.4593000  85.2555480  74.4436020  36.9850980
  84.9666220  74.8560000  35.5573990  71.6301270  86.1959940  35.8792960
  71.2456060  85.5553610  36.4775920  71.9413460  86.8996060  36.4487690
  77.7798410  83.0436480  31.3601580  78.1468540  82.5695050  32.1062920
  77.5903470  83.9178050  31.7009920  70.6438900  77.7880170  27.4895050
  70.3585820  77.4235840  28.3273670  70.5817760  77.0560630  26.8758190
  75.5697780  82.0845120  33.6785790  75.2654850  82.9637100  33.9036150
  76.5244240  82.1444910  33.7143230  74.0979570  86.2906110  24.2752640
  73.3241830  85.7503730  24.1151360  74.8274200  85.7712720  23.9370400
  84.8567550  85.2871470  30.0679030  85.5766670  85.7826760  29.6775140
  84.6549370  84.6089360  29.4232900  80.3177490  76.6809430  24.2108420
  79.5042100  76.1822600  24.1353730  80.1239440  77.5207680  23.7944770
  80.2386350  85.3580530  35.9548030  80.1723660  84.4376200  35.7005620
  79.6091490  85.4555970  36.6692670  83.0325880  81.0529080  22.5070580
  83.9205500  81.3646310  22.3321920  83.0030970  80.1801330  22.1151160
  74.1416970  85.9586490  27.9131450  74.6595640  85.1554750  27.8588340
  73.6900990  85.8965630  28.7548280  79.0286470  87.2252770  23.1858750
  79.3702170  87.9695000  22.6902070  78.1999180  87.5383890  23.5483580
  71.6261510  82.9247860  34.8257150  71.2676450  83.5901710  35.4130490
  71.3316070  82.0931410  35.1969770  74.8274630  83.3832100  37.7096700
  74.5274770  83.5289280  36.8124520  75.5985870  82.8237390  37.6170090
  80.1703080  88.1801100  35.7051830  80.1847620  87.2482060  35.4870740
  79.4628180  88.2660860  36.3441600  85.3040150  82.3640920  21.9750440
  85.2203870  82.7955140  21.1246880  86.0234340  82.8239270  22.4077260
  86.3814290  84.8208440  35.0520410  85.6562480  85.4137220  34.8549800
  86.9089750  84.8131980  34.2533780  86.3327400  89.2183180  24.7032570
  85.6903560  88.5638800  24.9776290  85.9458060  89.6238270  23.9273240
  81.9113880  86.5468610  28.5504260  82.2637700  85.9496740  27.8905630
  81.0276210  86.2212840  28.7212510  77.9977160  87.3066300  25.9574670
  78.6848290  87.8535510  26.3382260  77.2109580  87.8507030  25.9924280
  70.1369560  82.9239120  21.4491750  71.0064410  83.2063920  21.7327670
  69.6459880  83.7374990  21.3340560  77.3004370  84.3112330  25.5700030
  77.7567150  85.1217580  25.7960220  76.9492580  83.9935470  26.4018520
  79.6036980  89.8218670  32.7992330  80.2479200  90.0278050  33.4765750
  79.9666420  89.0607070  32.3463180  73.2016150  74.6549980  26.0422550
  73.0730780  74.6467880  26.9907470  72.3778170  74.9933070  25.6913560
  80.8769060  87.8251020  31.5169780  81.5191290  87.1244180  31.6301950
  81.4018410  88.6049460  31.3366670  84.7224780  88.1099640  21.2408920
  84.4962360  87.3930080  21.8333560  84.3320980  87.8612080  20.4030670
  82.6506680  88.6245920  34.7205840  82.9862920  89.2112610  35.3983760
  81.7307020  88.4938630  34.9503630  70.2010080  76.4141100  35.5029250
  69.4868600  76.6138020  36.1081860  70.6205120  75.6380670  35.8744050
  84.3041030  86.0271580  22.9023080  84.0162730  86.4884270  23.6900960
  85.0993200  85.5669350  23.1707300  78.4795260  88.6737250  37.8893900
  78.1592130  87.9546490  38.4339590  77.8053620  89.3492320  37.9629960
  76.5209430  89.5197700  22.8327050  76.5119530  90.2527390  22.2171560
  75.6007790  89.2729280  22.9254010  72.1216070  84.7412590  23.5773810
  71.5144020  85.4811490  23.5869110  72.5965420  84.8311950  22.7512010
  81.6948860  78.9063410  33.2530700  82.0629680  78.0858620  33.5810270
  80.8347060  78.9665300  33.6686350  85.0610890  77.8620350  24.0618260
  84.4324050  77.9666020  23.3476490  84.5662810  78.0817130  24.8512140
  79.5069030  89.5825940  21.4952240  79.6081010  89.3789930  20.5654220
  78.6070770  89.3284220  21.7000020  77.0294920  80.1406300  25.4776140
  76.3211070  80.6092640  25.9189750  77.3139400  79.4828310  26.1121330
  78.6550850  81.5603000  33.4768670  79.1536100  82.0348820  34.1420520
  78.7973800  80.6366520  33.6838700  81.0610350  76.8656960  26.9171930
  80.9378130  76.8843090  25.9681440  82.0094910  76.9135900  27.0370330
  75.2329940  78.4491380  22.8526850  76.0820470  78.8861530  22.7867040
  74.8661210  78.7611640  23.6798910  85.8617710  77.7770960  34.3197060
  85.3591310  78.5176360  34.6590870  86.6774370  78.1654960  34.0033850
  84.1539720  83.0204140  27.7658420  83.2129860  83.0354370  27.9406110
  84.4683790  82.2340100  28.2118720  74.1321360  84.7023740  21.3262380
  74.8984630  84.5905100  21.8887810  74.2096050  84.0061710  20.6739150
  72.8268120  82.1348810  22.0095270  72.9071710  81.1876320  22.1212670
  73.7187870  82.4655690  22.1155930  70.5128310  88.3517770  24.9871320
  69.5868090  88.5938910  24.9776730  70.9784740  89.1792030  24.8656070
  81.4705740  87.5770140  38.2490800  80.8643900  87.6001740  37.5086550
  81.1659850  86.8453180  38.7858050  70.3538920  83.9563730  37.2451440
  70.8577940  83.3771010  37.8167670  69.6146340  84.2403960  37.7827810
  77.2562540  86.6777920  20.7997730  77.1513180  86.0630270  21.5259110
  77.0886760  86.1543810  20.0160740  77.4076860  85.3634720  36.7786960
  76.6422530  85.9319720  36.6941630  77.5892820  85.0710930  35.8855190
  80.4965270  85.7397950  21.4039720  79.9475370  86.1867250  22.0482460
  81.1184530  85.2347200  21.9277390  84.5500210  87.0940050  37.3361980
  85.2909680  87.4315810  36.8329440  83.7872890  87.2632110  36.7831750
  72.3862000  82.0993320  38.1401510  72.4267340  81.8007190  39.0486740
  73.2407500  82.5000930  37.9809030  76.1640390  84.6988870  23.3005020
  76.5856810  84.5328740  24.1436410  76.2891230  83.8889100  22.8060160
  74.3267810  80.6785420  36.1076000  73.7964270  80.1876370  35.4799340
  74.9955880  81.1069620  35.5733930  78.6768030  83.7226480  20.5482120
  79.1973690  83.0075500  20.1823270  79.3236430  84.3612350  20.8482630
  83.2245870  85.1454880  35.8717190  83.6386890  85.2999960  36.7207610
  82.2896870  85.2710100  36.0342970  83.6968040  82.4851040  37.8756340
  84.2788810  81.7303360  37.7876820  83.8729810  83.0158480  37.0987820
  77.9861100  85.0975360  33.8413120  78.4049210  85.9408090  33.6689360
  77.0669730  85.2347400  33.6119900  80.3225000  82.8291540  35.2250960
  80.4421210  82.2332680  35.9645800  81.1819000  82.8661230  34.8052260
  82.6612900  83.3828730  33.8013470  82.1348120  83.9071350  33.1978610
  83.0044240  84.0156120  34.4323200  75.0599290  80.7722100  20.2463180
  74.8588350  79.9089460  20.6076520  74.8891340  80.6855460  19.3084780
  81.9087200  78.9878700  36.7159800  81.2202720  78.3260240  36.6509790
  82.6293220  78.5416970  37.1608260  82.5387600  75.5830330  22.7750060
  82.8189890  74.7398230  23.1309480  81.7653330  75.8153440  23.2888810
  73.8582090  77.8722720  20.2341060  74.1607990  77.8790150  19.3260210
  74.5976680  77.5220580  20.7308720  77.0767020  76.8157340  21.2197260
  76.7289020  76.1381330  20.6399710  77.2779790  76.3546850  22.0340650
  72.8812220  87.1765140  21.0670860  73.3187090  87.7194810  21.7228440
  73.3659950  86.3512090  21.0767200  70.0958020  89.9654170  28.5191120
  70.4261030  89.0975230  28.2869760  70.5249020  90.1712690  29.3496080
  74.6919940  88.2963180  26.1793090  74.3915480  88.1728150  27.0797000
  74.5857430  87.4371770  25.7708820  86.2210410  90.3341760  35.5450060
  85.6212400  90.3934320  34.8013980  86.3504310  89.3946740  35.6746910
  87.4611860  88.0759580  20.8819770  86.6304820  88.1436230  21.3527000
  87.6383690  88.9663700  20.5786630  86.9168320  84.8207060  23.3853970
  87.6787230  85.3903710  23.4913660  86.9322690  84.2534260  24.1562280
  70.4172660  83.3444990  27.6161630  69.7621500  83.0756630  26.9721330
  71.2550610  83.2349470  27.1663610  87.9228290  85.6757160  28.2295900
  88.2937120  84.8924480  27.8231870  88.5630220  86.3646260  28.0513200
  84.9062050  87.0593740  33.6426220  84.0921890  87.4890900  33.9052010
  85.3136250  87.6712150  33.0295270  86.9687490  85.1141430  20.5426490
  87.2436330  86.0220310  20.4145710  86.7798230  85.0503960  21.4788480
  83.3663100  78.1386280  21.8380120  83.7847980  77.9517260  20.9976780
  83.0599160  77.2865330  22.1483050  86.8652830  83.0510420  25.5355920
  86.4896430  82.2838350  25.1037210  86.1355950  83.4333120  26.0230850
  71.4548590  83.7297560  32.1564970  71.8221630  83.6424960  33.0360990
  70.8859410  82.9664110  32.0571830  86.2552450  82.1981940  35.1695440
  86.0238540  81.9694690  34.2693390  86.5157000  83.1181490  35.1240330
  71.0064590  80.6406650  36.0623390  70.1120640  80.6073410  36.4017100
  71.5462140  80.8393440  36.8274640  84.6940520  77.4238370  37.9475140
  85.5710700  77.4321770  38.3309140  84.7061360  76.6869210  37.3367490
  69.6310740  80.5543920  23.5586960  68.7274820  80.8174120  23.3838620
  70.1151360  80.8255090  22.7786920  86.1403790  81.2767910  28.8363160
  86.6641270  80.7830560  28.2053330  86.7263210  81.4118270  29.5810730
  86.3193510  81.3607780  32.3582710  85.3696220  81.3271320  32.4727700
  86.5006520  82.2707890  32.1232480  72.1737950  79.6109460  21.4681340
  72.8829650  79.1892680  20.9828620  71.4577890  79.6784690  20.8364690
  71.8212110  75.6648790  20.5083990  72.5440240  76.2057730  20.8265210
  72.0936630  75.3912210  19.6325530  85.6303760  80.5341260  24.7755570
  86.1262880  80.3012130  25.5604450  85.4319830  79.6953100  24.3593210
  87.0590920  79.1702210  27.3093250  86.9490200  79.0158250  28.2475520
  87.8198510  78.6423150  27.0668660  87.9481190  77.0010130  20.5499390
  88.8730500  76.8691310  20.3417680  87.9256980  77.0802950  21.5035840
  88.0219680  77.7720790  23.1756100  87.2271180  77.7065910  23.7049010
  88.2262960  78.7071430  23.1641450  72.8700670  88.2430250  37.3185120
  72.8270300  87.8723160  38.1999580  73.0011680  89.1807820  37.4586940
  76.5706700  89.7989840  32.9194840  76.3298060  90.0664400  32.0325360
  77.5109340  89.9695570  32.9745700  72.3400930  88.5550880  33.3890940
  71.6134990  87.9356170  33.3216890  72.4010080  88.9491490  32.5189020
  86.3178180  75.7332910  27.6363750  86.2566580  74.7894130  27.4894770
  87.0970210  75.8413000  28.1817210  71.2458950  75.7042050  24.1019560
  72.0038310  75.8170930  23.5283590  70.7836120  76.5411250  24.0562990
  85.4332340  74.8845330  23.6045220  85.6282970  75.7828780  23.8712650
  84.6462210  74.6532410  24.0978170  73.6184100  76.2306100  22.6421530
  74.1476860  75.4435900  22.5129480  74.2512420  76.9097290  22.8757060
  75.8121940  75.9681240  25.6966920  75.1824680  75.2668550  25.8637050
  75.2727080  76.7285370  25.4800080  73.9901390  88.6305610  22.9233420
  73.3610270  89.0990710  23.4719250  74.1049220  87.7854830  23.3579610
  81.4451110  82.6811270   9.0734620  81.3645160  81.7665880   8.8026330
  81.0315530  83.1778340   8.3674330  79.5769150  84.4590290  10.9543890
  78.8011250  83.9790730  11.2442460  80.2282080  83.7795940  10.7800050
  73.5934980  84.7710100  11.8319650  72.7619860  84.5158810  12.2316160
  74.2015960  84.8420870  12.5677570  83.5976580  88.8650480   9.7343020
  83.1358110  88.0937720  10.0630190  84.4102130  88.8916550  10.2395470
  73.5736240  88.8050190  12.0277670  73.8764280  87.9147930  11.8487890
  74.3179830  89.3620410  11.7999920  72.0026930  79.7311990   5.6162040
  71.1143630  80.0727960   5.5141920  72.2868120  79.5312310   4.7242870
  69.9659940  82.3317640  11.5001740  70.5376050  81.5639840  11.5005380
  69.9661480  82.6306400  10.5908350  79.0178140  87.1347480  10.9614050
  78.9486420  86.1937420  10.8003180  79.7798000  87.2248890  11.5336620
  71.2084810  77.7402000  13.2870670  71.0287650  76.8427750  13.5673430
  70.8064890  78.2873870  13.9617620  80.0483310  79.9417860  11.1882980
  80.4248130  79.0689740  11.0756650  79.9502820  80.2776560  10.2973420
  74.1788320  78.3143490   6.6500420  74.2855070  79.2147220   6.9569180
  73.2680680  78.2661460   6.3595070  83.8307430  77.4368300   8.1211320
  84.6517050  76.9464870   8.1636800  83.8641510  78.0265960   8.8743160
  71.8271480  80.2362500  11.8953010  72.5081590  80.5000870  12.5140410
  71.5119530  79.3963370  12.2291020  76.0196050  81.2829860  10.9825600
  76.5274270  81.7810830  11.6230620  76.5509290  80.5065060  10.8064960
  88.1206980  79.4535050  14.6854950  87.4159150  79.8416760  14.1670060
  88.3864900  80.1485340  15.2875880  74.3032150  75.9228420  15.2489020
  74.3050590  76.4400810  14.4434920  73.4736460  75.4458600  15.2258950
  80.6903240  86.0347730   6.7478920  80.0720510  86.4997180   6.1841640
  81.2026490  86.7275210   7.1648430  75.5535000  85.5623600  13.4262520
  75.2204380  86.1892520  14.0683590  75.7301680  86.0885480  12.6464190
  84.0668910  79.3768680  10.8938860  83.3624480  79.6653570  11.4741970
  84.4281070  80.1868790  10.5338420  73.9847480  77.6338380  13.2559470
  74.3264290  78.4780430  12.9613340  73.0463290  77.7822120  13.3724810
  74.7654100  87.5304400  15.2411700  75.3828100  88.2055480  14.9596150
  73.9047220  87.9392380  15.1499200  70.0586440  86.7204260   4.1218550
  69.6814420  87.2091360   3.3903450  70.3159510  87.3929540   4.7525080
  85.6831690  88.9943810  13.1566340  84.9995210  89.6642920  13.1483010
  86.2225980  89.1924460  12.3911200  87.1355830  78.8223470  11.2848070
  86.1880740  78.8562450  11.4163500  87.4605820  79.6362420  11.6697430
  77.6675370  75.1220650   9.5804060  77.9750350  74.5667540   8.8639560
  76.7376070  75.2565110   9.3977050  84.5135850  87.5604160   6.9601690
  84.4032180  86.6178490   7.0851110  84.5104100  87.9219800   7.8464450
  82.6175870  85.7417780  13.1994130  83.0344660  85.5277890  12.3647590
  83.3415690  85.9990570  13.7702750  80.0556130  83.1869480   6.3164180
  79.1285410  83.1206860   6.5452650  80.2080950  84.1249610   6.2019420
  80.0425210  79.4586480   3.3131340  79.1028880  79.6200440   3.3983800
  80.3608470  80.1772160   2.7667330  86.5637970  84.1405000  13.2910370
  85.7356600  84.2098090  12.8160500  87.1588450  84.7259310  12.8226200
  84.0853420  84.7489780   6.8199430  83.4665840  84.4109330   6.1725730
  84.0677870  84.1049540   7.5278620  83.5279980  80.9274320  14.2365240
  83.1151160  81.7528030  14.4905230  82.7955930  80.3419360  14.0441600
  75.6612770  83.7134220   9.0983910  75.2569770  83.0011470   8.6029810
  75.7475890  83.3687460   9.9871950  76.1294470  87.4001780  11.2623120
  75.8322760  86.7947250  10.5830900  77.0794290  87.4379090  11.1512480
  74.3741390  80.4877430  12.8782950  74.9255980  80.5972770  12.1036200
  74.8884900  80.8615030  13.5938180  75.2212900  87.1383470  17.9130920
  74.3241430  87.3623440  18.1604320  75.2465770  87.2618410  16.9642320
  82.2618120  83.9876590   3.8272180  82.7011400  83.1499020   3.6810000
  82.9746540  84.6205990   3.9136320  74.0484120  84.0096790  16.4888290
  73.9091890  84.8819590  16.8575690  73.1665480  83.6669600  16.3436230
  80.3713500  88.9272660   7.7953420  80.8109410  89.6696990   7.3808810
  80.3100390  89.1699230   8.7192380  75.8464470  89.9518490  18.6973440
  75.8179900  90.3561440  17.8301870  75.6829440  89.0228850  18.5345040
  85.8435260  75.2419400   2.1413220  85.5307920  75.3346230   3.0412290
  86.6047730  75.8200430   2.0910650  72.3617400  82.6079200   6.5990560
  72.2415000  83.3341290   5.9871830  72.0518290  81.8382110   6.1218470
  70.0002770  85.7794340  12.4059200  70.0783190  85.9143110  11.4614920
  70.6144450  85.0710230  12.5987320  71.2450400  87.4794530   8.8165380
  70.8378480  87.6209120   7.9618980  72.1363410  87.1954690   8.6136590
  87.2012540  87.9258440  17.1537620  87.3275600  87.6870320  16.2354800
  87.2433920  87.0942980  17.6259700  82.7409810  89.4229340   3.7114430
  82.0474970  89.4206630   3.0516710  83.4832670  88.9988660   3.2808600
  87.0536550  79.9790900  18.1187360  86.4380820  80.4870570  17.5902820
  86.7332970  79.0789230  18.0613300  70.0562290  86.8208510  14.9453660
  70.2193330  86.3513870  14.1273030  70.5214740  86.3132070  15.6102500
  74.8281060  75.9514270   9.9814230  74.3849210  76.7323810   9.6498750
  75.3866050  76.2744160  10.6885170  79.1150870  78.8182790  15.5849550
  78.6530240  79.0265810  16.3969490  78.7128980  78.0042140  15.2820220
  84.1155380  80.0391740  16.7146210  83.2648970  79.7397490  17.0355280
  83.9557170  80.2833750  15.8030030  81.2105090  81.5393490  18.8145000
  81.5358500  80.7057240  18.4747230  81.9985420  82.0622010  18.9623330
  77.9439880  75.5724970   4.8620060  77.3194060  75.5684840   5.5873370
  77.8570000  74.7055930   4.4656030  76.8656960  76.4961600  11.8403830
  77.1629290  77.4024430  11.7595850  77.4142520  76.0080380  11.2263400
  74.6195280  81.0747840   7.7095480  74.3936200  80.8585010   8.6142100
  73.8387810  81.5076300   7.3641450  81.8493040  81.0811210   6.3086130
  81.2501930  81.8047010   6.1249750  82.3972650  81.0187990   5.5262580
  77.0594490  81.9733420  18.3755750  76.9638090  81.0328150  18.2256150
  77.9026470  82.1948490  17.9803820  80.4557910  79.7174750   8.3389410
  80.8487480  80.0346950   7.5258100  80.8174760  78.8386630   8.4533930
  72.1905030  78.3847090  16.5289530  71.7968420  79.2322300  16.7362310
  71.5023430  77.7473460  16.7198170  78.7650080  78.4682060  19.5986270
  78.0748400  78.2754260  20.2332360  79.5082380  78.7516700  20.1310570
  69.4922080  76.3075550  10.5619610  69.2035130  76.8778410  11.2744590
  70.2367840  75.8280000  10.9250840  81.0413050  82.3080500  12.4340190
  80.3094170  82.8167310  12.7830290  80.6437390  81.4910480  12.1328970
  77.4790440  78.9834700  10.8392680  77.4826500  78.5424650   9.9897220
  78.3741560  79.3052030  10.9464500  73.3292820  78.8661190   9.7986890
  72.9892870  79.3436420  10.5553940  72.5670140  78.4126310   9.4387990
  77.5410590  79.9846780   3.8299440  77.6623410  79.9433260   4.7785260
  77.1559100  80.8470930   3.6746170  81.5038960  77.7614180  11.8463130
  81.5211700  78.2122830  12.6904980  81.2554540  76.8619820  12.0596570
  76.5532090  82.2947920   3.2282740  75.9848990  81.8466170   2.6018650
  77.2621090  82.6540700   2.6947890  84.9309710  75.1746360  17.6849510
  85.2555480  74.4436020  18.2107490  84.9666220  74.8560000  16.7830500
  71.6301270  86.1959940  17.1049470  71.2456060  85.5553610  17.7032430
  71.9413460  86.8996060  17.6744200  77.7798410  83.0436480  12.5858090
  78.1468540  82.5695050  13.3319430  77.5903470  83.9178050  12.9266430
  70.6438900  77.7880170   8.7151560  70.3585820  77.4235840   9.5530180
  70.5817760  77.0560630   8.1014700  75.5697780  82.0845120  14.9042300
  75.2654850  82.9637100  15.1292660  76.5244240  82.1444910  14.9399740
  74.0979570  86.2906110   5.5009150  73.3241830  85.7503730   5.3407870
  74.8274200  85.7712720   5.1626910  84.8567550  85.2871470  11.2935540
  85.5766670  85.7826760  10.9031650  84.6549370  84.6089360  10.6489410
  80.3177490  76.6809430   5.4364930  79.5042100  76.1822600   5.3610240
  80.1239440  77.5207680   5.0201280  80.2386350  85.3580530  17.1804540
  80.1723660  84.4376200  16.9262130  79.6091490  85.4555970  17.8949180
  83.0325880  81.0529080   3.7327090  83.9205500  81.3646310   3.5578430
  83.0030970  80.1801330   3.3407670  74.1416970  85.9586490   9.1387960
  74.6595640  85.1554750   9.0844850  73.6900990  85.8965630   9.9804790
  79.0286470  87.2252770   4.4115260  79.3702170  87.9695000   3.9158580
  78.1999180  87.5383890   4.7740090  71.6261510  82.9247860  16.0513660
  71.2676450  83.5901710  16.6387000  71.3316070  82.0931410  16.4226280
  74.8274630  83.3832100  18.9353210  74.5274770  83.5289280  18.0381030
  75.5985870  82.8237390  18.8426600  80.1703080  88.1801100  16.9308340
  80.1847620  87.2482060  16.7127250  79.4628180  88.2660860  17.5698110
  85.3040150  82.3640920   3.2006950  85.2203870  82.7955140   2.3503390
  86.0234340  82.8239270   3.6333770  86.3814290  84.8208440  16.2776920
  85.6562480  85.4137220  16.0806310  86.9089750  84.8131980  15.4790290
  86.3327400  89.2183180   5.9289080  85.6903560  88.5638800   6.2032800
  85.9458060  89.6238270   5.1529750  81.9113880  86.5468610   9.7760770
  82.2637700  85.9496740   9.1162140  81.0276210  86.2212840   9.9469020
  77.9977160  87.3066300   7.1831180  78.6848290  87.8535510   7.5638770
  77.2109580  87.8507030   7.2180790  70.1369560  82.9239120   2.6748260
  71.0064410  83.2063920   2.9584180  69.6459880  83.7374990   2.5597070
  77.3004370  84.3112330   6.7956540  77.7567150  85.1217580   7.0216730
  76.9492580  83.9935470   7.6275030  79.6036980  89.8218670  14.0248840
  80.2479200  90.0278050  14.7022260  79.9666420  89.0607070  13.5719690
  73.2016150  74.6549980   7.2679060  73.0730780  74.6467880   8.2163980
  72.3778170  74.9933070   6.9170070  80.8769060  87.8251020  12.7426290
  81.5191290  87.1244180  12.8558460  81.4018410  88.6049460  12.5623180
  84.7224780  88.1099640   2.4665430  84.4962360  87.3930080   3.0590070
  84.3320980  87.8612080   1.6287180  82.6506680  88.6245920  15.9462350
  82.9862920  89.2112610  16.6240270  81.7307020  88.4938630  16.1760140
  70.2010080  76.4141100  16.7285760  69.4868600  76.6138020  17.3338370
  70.6205120  75.6380670  17.1000560  84.3041030  86.0271580   4.1279590
  84.0162730  86.4884270   4.9157470  85.0993200  85.5669350   4.3963810
  78.4795260  88.6737250  19.1150410  78.1592130  87.9546490  19.6596100
  77.8053620  89.3492320  19.1886470  76.5209430  89.5197700   4.0583560
  76.5119530  90.2527390   3.4428070  75.6007790  89.2729280   4.1510520
  72.1216070  84.7412590   4.8030320  71.5144020  85.4811490   4.8125620
  72.5965420  84.8311950   3.9768520  81.6948860  78.9063410  14.4787210
  82.0629680  78.0858620  14.8066780  80.8347060  78.9665300  14.8942860
  85.0610890  77.8620350   5.2874770  84.4324050  77.9666020   4.5733000
  84.5662810  78.0817130   6.0768650  79.5069030  89.5825940   2.7208750
  79.6081010  89.3789930   1.7910730  78.6070770  89.3284220   2.9256530
  77.0294920  80.1406300   6.7032650  76.3211070  80.6092640   7.1446260
  77.3139400  79.4828310   7.3377840  78.6550850  81.5603000  14.7025180
  79.1536100  82.0348820  15.3677030  78.7973800  80.6366520  14.9095210
  81.0610350  76.8656960   8.1428440  80.9378130  76.8843090   7.1937950
  82.0094910  76.9135900   8.2626840  75.2329940  78.4491380   4.0783360
  76.0820470  78.8861530   4.0123550  74.8661210  78.7611640   4.9055420
  85.8617710  77.7770960  15.5453570  85.3591310  78.5176360  15.8847380
  86.6774370  78.1654960  15.2290360  84.1539720  83.0204140   8.9914930
  83.2129860  83.0354370   9.1662620  84.4683790  82.2340100   9.4375230
  74.1321360  84.7023740   2.5518890  74.8984630  84.5905100   3.1144320
  74.2096050  84.0061710   1.8995660  72.8268120  82.1348810   3.2351780
  72.9071710  81.1876320   3.3469180  73.7187870  82.4655690   3.3412440
  70.5128310  88.3517770   6.2127830  69.5868090  88.5938910   6.2033240
  70.9784740  89.1792030   6.0912580  81.4705740  87.5770140  19.4747310
  80.8643900  87.6001740  18.7343060  81.1659850  86.8453180  20.0114560
  70.3538920  83.9563730  18.4707950  70.8577940  83.3771010  19.0424180
  69.6146340  84.2403960  19.0084320  77.4076860  85.3634720  18.0043470
  76.6422530  85.9319720  17.9198140  77.5892820  85.0710930  17.1111700
  80.4965270  85.7397950   2.6296230  79.9475370  86.1867250   3.2738970
  81.1184530  85.2347200   3.1533900  84.5500210  87.0940050  18.5618490
  85.2909680  87.4315810  18.0585950  83.7872890  87.2632110  18.0088260
  72.3862000  82.0993320  19.3658020  72.4267340  81.8007190  20.2743250
  73.2407500  82.5000930  19.2065540  76.1640390  84.6988870   4.5261530
  76.5856810  84.5328740   5.3692920  76.2891230  83.8889100   4.0316670
  74.3267810  80.6785420  17.3332510  73.7964270  80.1876370  16.7055850
  74.9955880  81.1069620  16.7990440  83.2245870  85.1454880  17.0973700
  83.6386890  85.2999960  17.9464120  82.2896870  85.2710100  17.2599480
  83.6968040  82.4851040  19.1012850  84.2788810  81.7303360  19.0133330
  83.8729810  83.0158480  18.3244330  74.8140110  77.6447790  17.4129800
  74.7196980  77.0268540  16.6880670  74.2337500  78.3714080  17.1859710
  77.5801550  76.2021030  14.4457190  77.1318850  76.2245290  13.6002740
  76.9466750  75.8040050  15.0427490  77.9861100  85.0975360  15.0669630
  78.4049210  85.9408090  14.8945870  77.0669730  85.2347400  14.8376410
  80.3225000  82.8291540  16.4507470  80.4421210  82.2332680  17.1902310
  81.1819000  82.8661230  16.0308770  82.6612900  83.3828730  15.0269980
  82.1348120  83.9071350  14.4235120  83.0044240  84.0156120  15.6579710
  77.0893770  79.3712890  17.7083290  77.6793460  79.0628740  18.3961110
  76.2714010  78.8992640  17.8643190  81.9087200  78.9878700  17.9416310
  81.2202720  78.3260240  17.8766300  82.6293220  78.5416970  18.3864770
  82.5387600  75.5830330   4.0006570  82.8189890  74.7398230   4.3565990
  81.7653330  75.8153440   4.5145320  77.0767020  76.8157340   2.4453770
  76.7289020  76.1381330   1.8656220  77.2779790  76.3546850   3.2597160
  72.8812220  87.1765140   2.2927370  73.3187090  87.7194810   2.9484950
  73.3659950  86.3512090   2.3023710  70.0958020  89.9654170   9.7447630
  70.4261030  89.0975230   9.5126270  70.5249020  90.1712690  10.5752590
  74.6919940  88.2963180   7.4049600  74.3915480  88.1728150   8.3053510
  74.5857430  87.4371770   6.9965330  86.2210410  90.3341760  16.7706570
  85.6212400  90.3934320  16.0270490  86.3504310  89.3946740  16.9003420
  87.4611860  88.0759580   2.1076280  86.6304820  88.1436230   2.5783510
  87.6383690  88.9663700   1.8043140  86.9168320  84.8207060   4.6110480
  87.6787230  85.3903710   4.7170170  86.9322690  84.2534260   5.3818790
  70.4172660  83.3444990   8.8418140  69.7621500  83.0756630   8.1977840
  71.2550610  83.2349470   8.3920120  87.9228290  85.6757160   9.4552410
  88.2937120  84.8924480   9.0488380  88.5630220  86.3646260   9.2769710
  84.9062050  87.0593740  14.8682730  84.0921890  87.4890900  15.1308520
  85.3136250  87.6712150  14.2551780  86.9687490  85.1141430   1.7683000
  87.2436330  86.0220310   1.6402220  86.7798230  85.0503960   2.7044990
  83.3663100  78.1386280   3.0636630  83.7847980  77.9517260   2.2233290
  83.0599160  77.2865330   3.3739560  86.8652830  83.0510420   6.7612430
  86.4896430  82.2838350   6.3293720  86.1355950  83.4333120   7.2487360
  71.4548590  83.7297560  13.3821480  71.8221630  83.6424960  14.2617500
  70.8859410  82.9664110  13.2828340  86.2552450  82.1981940  16.3951950
  86.0238540  81.9694690  15.4949900  86.5157000  83.1181490  16.3496840
  71.0064590  80.6406650  17.2879900  70.1120640  80.6073410  17.6273610
  71.5462140  80.8393440  18.0531150  84.6940520  77.4238370  19.1731650
  85.5710700  77.4321770  19.5565650  84.7061360  76.6869210  18.5624000
  69.6310740  80.5543920   4.7843470  68.7274820  80.8174120   4.6095130
  70.1151360  80.8255090   4.0043430  86.1403790  81.2767910  10.0619670
  86.6641270  80.7830560   9.4309840  86.7263210  81.4118270  10.8067240
  86.3193510  81.3607780  13.5839220  85.3696220  81.3271320  13.6984210
  86.5006520  82.2707890  13.3488990  72.1737950  79.6109460   2.6937850
  72.8829650  79.1892680   2.2085130  71.4577890  79.6784690   2.0621200
  85.6303760  80.5341260   6.0012080  86.1262880  80.3012130   6.7860960
  85.4319830  79.6953100   5.5849720  71.5104300  74.9154980  11.6363120
  72.1580490  74.3652360  11.1958280  71.9306140  75.1698130  12.4578930
  87.0590920  79.1702210   8.5349760  86.9490200  79.0158250   9.4732030
  87.8198510  78.6423150   8.2925170  85.4056640  75.1096340  14.9932760
  86.0428860  75.7230480  15.3591950  85.5531530  75.1457000  14.0481990
  87.9481190  77.0010130   1.7755900  88.8730500  76.8691310   1.5674190
  87.9256980  77.0802950   2.7292350  88.0219680  77.7720790   4.4012610
  87.2271180  77.7065910   4.9305520  88.2262960  78.7071430   4.3897960
  71.2636300  75.0710650  14.3788440  70.9151120  75.5274470  15.1446620
  70.9324000  74.1767780  14.4610870  72.8700670  88.2430250  18.5441630
  72.8270300  87.8723160  19.4256090  73.0011680  89.1807820  18.6843450
  76.5706700  89.7989840  14.1451350  76.3298060  90.0664400  13.2581870
  77.5109340  89.9695570  14.2002210  78.7761120  76.2622530  17.9007860
  78.7150010  76.8544360  18.6503270  79.7161500  76.1548490  17.7558120
  81.4135680  75.9192590  17.5400150  82.0276090  76.2371880  16.8781230
  81.9585240  75.4341180  18.1596010  71.9356940  74.5986850  17.6539210
  72.4839930  74.4174900  16.8905320  72.0012250  73.8080960  18.1895520
  82.1543720  74.4824730  13.8669440  81.2803560  74.8159840  13.6642370
  82.0454470  74.0097910  14.6921310  83.0615700  76.6895600  15.2511160
  82.7329060  75.8747360  14.8712890  84.0098000  76.6465410  15.1276850
  72.3400930  88.5550880  14.6147450  71.6134990  87.9356170  14.5473400
  72.4010080  88.9491490  13.7445530  79.9018540  75.3994570  12.8062350
  79.1190330  75.8740070  13.0859110  79.6081470  74.4949400  12.6975530
  84.4539610  76.1017670  10.8511440  84.8947700  76.0462770  10.0033040
  84.1847200  77.0175680  10.9221620  86.3178180  75.7332910   8.8620260
  86.2566580  74.7894130   8.7151280  87.0970210  75.8413000   9.4073720
  71.2458950  75.7042050   5.3276070  72.0038310  75.8170930   4.7540100
  70.7836120  76.5411250   5.2819500  77.7872760  77.8181320   8.3178380
  76.9747270  77.4438210   7.9774260  78.2914400  77.0626400   8.6199570
  82.2897740  74.4823770   9.5561450  82.8927110  75.0543980  10.0309970
  81.5490730  75.0463210   9.3335350  85.4332340  74.8845330   4.8301730
  85.6282970  75.7828780   5.0969160  84.6462210  74.6532410   5.3234680
  73.6184100  76.2306100   3.8678040  74.1476860  75.4435900   3.7385990
  74.2512420  76.9097290   4.1013570  75.8121940  75.9681240   6.9223430
  75.1824680  75.2668550   7.0893560  75.2727080  76.7285370   6.7056590
  75.9377500  75.2465220  19.3575920  75.6561770  75.7498820  18.5936740
  76.3197200  74.4486970  18.9918050  73.9901390  88.6305610   4.1489930
  73.3610270  89.0990710   4.6975760  74.1049220  87.7854830   4.5836120
  82.5392960  74.6618800  19.9356390  82.4258410  74.9813410  20.8307910
  83.3562700  75.0631310  19.6393670  81.4451110  63.9067780  65.3965090
  81.3645160  62.9922390  65.1256800  81.0315530  64.4034850  64.6904800
  79.5769150  65.6846800  67.2774360  78.8011250  65.2047240  67.5672930
  80.2282080  65.0052450  67.1030520  73.5934980  65.9966610  68.1550120
  72.7619860  65.7415320  68.5546630  74.2015960  66.0677380  68.8908040
  83.5976580  70.0906990  66.0573490  83.1358110  69.3194230  66.3860660
  84.4102130  70.1173060  66.5625940  73.5736240  70.0306700  68.3508140
  73.8764280  69.1404440  68.1718360  74.3179830  70.5876920  68.1230390
  69.9659940  63.5574150  67.8232210  70.5376050  62.7896350  67.8235850
  69.9661480  63.8562910  66.9138820  79.8239890  72.3765000  65.6777480
  79.2051330  72.8322500  65.1071920  80.6791670  72.5316460  65.2767180
  79.0178140  68.3603990  67.2844520  78.9486420  67.4193930  67.1233650
  79.7798000  68.4505400  67.8567090  71.2084810  58.9658510  69.6101140
  71.0287650  58.0684260  69.8903900  70.8064890  59.5130380  70.2848090
  80.0483310  61.1674370  67.5113450  80.4248130  60.2946250  67.3987120
  79.9502820  61.5033070  66.6203890  83.8307430  58.6624810  64.4441790
  84.6517050  58.1721380  64.4867270  83.8641510  59.2522470  65.1973630
  71.8271480  61.4619010  68.2183480  72.5081590  61.7257380  68.8370880
  71.5119530  60.6219880  68.5521490  76.0196050  62.5086370  67.3056070
  76.5274270  63.0067340  67.9461090  76.5509290  61.7321570  67.1295430
  88.1206980  60.6791560  71.0085420  87.4159150  61.0673270  70.4900530
  88.3864900  61.3741850  71.6106350  74.3032150  57.1484930  71.5719490
  74.3050590  57.6657320  70.7665390  73.4736460  56.6715110  71.5489420
  80.6903240  67.2604240  63.0709390  80.0720510  67.7253690  62.5072110
  81.2026490  67.9531720  63.4878900  75.5535000  66.7880110  69.7492990
  75.2204380  67.4149030  70.3914060  75.7301680  67.3141990  68.9694660
  84.0668910  60.6025190  67.2169330  83.3624480  60.8910080  67.7972440
  84.4281070  61.4125300  66.8568890  73.9847480  58.8594890  69.5789940
  74.3264290  59.7036940  69.2843810  73.0463290  59.0078630  69.6955280
  74.7654100  68.7560910  71.5642170  75.3828100  69.4311990  71.2826620
  73.9047220  69.1648890  71.4729670  70.0586440  67.9460770  60.4449020
  69.6814420  68.4347870  59.7133920  70.3159510  68.6186050  61.0755550
  85.6831690  70.2200320  69.4796810  84.9995210  70.8899430  69.4713480
  86.2225980  70.4180970  68.7141670  87.1355830  60.0479980  67.6078540
  86.1880740  60.0818960  67.7393970  87.4605820  60.8618930  67.9927900
  77.6675370  56.3477160  65.9034530  77.9750350  55.7924050  65.1870030
  76.7376070  56.4821620  65.7207520  83.2190430  72.0644450  68.1941990
  83.2317590  71.6606740  67.3264250  82.6665650  72.8391740  68.0903420
  84.5135850  68.7860670  63.2832160  84.4032180  67.8435000  63.4081580
  84.5104100  69.1476310  64.1694920  82.6175870  66.9674290  69.5224600
  83.0344660  66.7534400  68.6878060  83.3415690  67.2247080  70.0933220
  80.0556130  64.4125990  62.6394650  79.1285410  64.3463370  62.8683120
  80.2080950  65.3506120  62.5249890  86.5637970  65.3661510  69.6140840
  85.7356600  65.4354600  69.1390970  87.1588450  65.9515820  69.1456670
  84.0853420  65.9746290  63.1429900  83.4665840  65.6365840  62.4956200
  84.0677870  65.3306050  63.8509090  83.5279980  62.1530830  70.5595710
  83.1151160  62.9784540  70.8135700  82.7955930  61.5675870  70.3672070
  75.6612770  64.9390730  65.4214380  75.2569770  64.2267980  64.9260280
  75.7475890  64.5943970  66.3102420  76.1294470  68.6258290  67.5853590
  75.8322760  68.0203760  66.9061370  77.0794290  68.6635600  67.4742950
  74.3741390  61.7133940  69.2013420  74.9255980  61.8229280  68.4266670
  74.8884900  62.0871540  69.9168650  84.2180080  72.1990160  71.2476690
  83.7410640  73.0062350  71.0549300  83.5341870  71.5468490  71.4002900
  75.2212900  68.3639980  74.2361390  74.3241430  68.5879950  74.4834790
  75.2465770  68.4874920  73.2872790  82.2618120  65.2133100  60.1502650
  82.7011400  64.3755530  60.0040470  82.9746540  65.8462500  60.2366790
  74.0484120  65.2353300  72.8118760  73.9091890  66.1076100  73.1806160
  73.1665480  64.8926110  72.6666700  80.3713500  70.1529170  64.1183890
  80.8109410  70.8953500  63.7039280  80.3100390  70.3955740  65.0422850
  75.8464470  71.1775000  75.0203910  75.8179900  71.5817950  74.1532340
  75.6829440  70.2485360  74.8575510  72.3617400  63.8335710  62.9221030
  72.2415000  64.5597800  62.3102300  72.0518290  63.0638620  62.4448940
  70.0002770  67.0050850  68.7289670  70.0783190  67.1399620  67.7845390
  70.6144450  66.2966740  68.9217790  71.2450400  68.7051040  65.1395850
  70.8378480  68.8465630  64.2849450  72.1363410  68.4211200  64.9367060
  87.2012540  69.1514950  73.4768090  87.3275600  68.9126830  72.5585270
  87.2433920  68.3199490  73.9490170  81.0629280  72.8542950  72.0462900
  81.5773950  72.7650960  72.8485330  80.2198360  73.2002650  72.3390810
  83.0383680  73.1398290  61.4746900  82.8784820  72.8501230  62.3728730
  82.8730390  72.3638420  60.9392130  75.5172060  72.9196820  63.2518520
  75.3414540  72.0032360  63.0386320  74.6627800  73.2784110  63.4916320
  82.7409810  70.6485850  60.0344900  82.0474970  70.6463140  59.3747180
  83.4832670  70.2245170  59.6039070  82.3059740  72.2748560  64.1093390
  82.7616690  71.4937940  64.4232010  82.6452260  72.9855380  64.6534570
  87.0536550  61.2047410  74.4417830  86.4380820  61.7127080  73.9133290
  86.7332970  60.3045740  74.3843770  70.0562290  68.0465020  71.2684130
  70.2193330  67.5770380  70.4503500  70.5214740  67.5388580  71.9332970
  74.8281060  57.1770780  66.3044700  74.3849210  57.9580320  65.9729220
  75.3866050  57.5000670  67.0115640  79.1150870  60.0439300  71.9080020
  78.6530240  60.2522320  72.7199960  78.7128980  59.2298650  71.6050690
  84.1155380  61.2648250  73.0376680  83.2648970  60.9654000  73.3585750
  83.9557170  61.5090260  72.1260500  81.2105090  62.7650000  75.1375470
  81.5358500  61.9313750  74.7977700  81.9985420  63.2878520  75.2853800
  76.8656960  57.7218110  68.1634300  77.1629290  58.6280940  68.0826320
  77.4142520  57.2336890  67.5493870  74.6195280  62.3004350  64.0325950
  74.3936200  62.0841520  64.9372570  73.8387810  62.7332810  63.6871920
  81.8493040  62.3067720  62.6316600  81.2501930  63.0303520  62.4480220
  82.3972650  62.2444500  61.8493050  77.0594490  63.1989930  74.6986220
  76.9638090  62.2584660  74.5486620  77.9026470  63.4205000  74.3034290
  80.4557910  60.9431260  64.6619880  80.8487480  61.2603460  63.8488570
  80.8174760  60.0643140  64.7764400  72.1905030  59.6103600  72.8520000
  71.7968420  60.4578810  73.0592780  71.5023430  58.9729970  73.0428640
  69.4922080  57.5332060  66.8850080  69.2035130  58.1034920  67.5975060
  70.2367840  57.0536510  67.2481310  81.0413050  63.5337010  68.7570660
  80.3094170  64.0423820  69.1060760  80.6437390  62.7166990  68.4559440
  77.4790440  60.2091210  67.1623150  77.4826500  59.7681160  66.3127690
  78.3741560  60.5308540  67.2694970  73.3292820  60.0917700  66.1217360
  72.9892870  60.5692930  66.8784410  72.5670140  59.6382820  65.7618460
  77.5410590  61.2103290  60.1529910  77.6623410  61.1689770  61.1015730
  77.1559100  62.0727440  59.9976640  81.5038960  58.9870690  68.1693600
  81.5211700  59.4379340  69.0135450  81.2554540  58.0876330  68.3827040
  76.5532090  63.5204430  59.5513210  75.9848990  63.0722680  58.9249120
  77.2621090  63.8797210  59.0178360  84.9309710  56.4002870  74.0079980
  85.2555480  55.6692530  74.5337960  84.9666220  56.0816510  73.1060970
  71.6301270  67.4216450  73.4279940  71.2456060  66.7810120  74.0262900
  71.9413460  68.1252570  73.9974670  77.7798410  64.2692990  68.9088560
  78.1468540  63.7951560  69.6549900  77.5903470  65.1434560  69.2496900
  70.6438900  59.0136680  65.0382030  70.3585820  58.6492350  65.8760650
  70.5817760  58.2817140  64.4245170  75.5697780  63.3101630  71.2272770
  75.2654850  64.1893610  71.4523130  76.5244240  63.3701420  71.2630210
  74.0979570  67.5162620  61.8239620  73.3241830  66.9760240  61.6638340
  74.8274200  66.9969230  61.4857380  84.8567550  66.5127980  67.6166010
  85.5766670  67.0083270  67.2262120  84.6549370  65.8345870  66.9719880
  80.3177490  57.9065940  61.7595400  79.5042100  57.4079110  61.6840710
  80.1239440  58.7464190  61.3431750  80.2386350  66.5837040  73.5035010
  80.1723660  65.6632710  73.2492600  79.6091490  66.6812480  74.2179650
  83.0325880  62.2785590  60.0557560  83.9205500  62.5902820  59.8808900
  83.0030970  61.4057840  59.6638140  74.1416970  67.1843000  65.4618430
  74.6595640  66.3811260  65.4075320  73.6900990  67.1222140  66.3035260
  79.0286470  68.4509280  60.7345730  79.3702170  69.1951510  60.2389050
  78.1999180  68.7640400  61.0970560  71.6261510  64.1504370  72.3744130
  71.2676450  64.8158220  72.9617470  71.3316070  63.3187920  72.7456750
  74.8274630  64.6088610  75.2583680  74.5274770  64.7545790  74.3611500
  75.5985870  64.0493900  75.1657070  80.1703080  69.4057610  73.2538810
  80.1847620  68.4738570  73.0357720  79.4628180  69.4917370  73.8928580
  85.3040150  63.5897430  59.5237420  85.2203870  64.0211650  58.6733860
  86.0234340  64.0495780  59.9564240  86.3814290  66.0464950  72.6007390
  85.6562480  66.6393730  72.4036780  86.9089750  66.0388490  71.8020760
  86.3327400  70.4439690  62.2519550  85.6903560  69.7895310  62.5263270
  85.9458060  70.8494780  61.4760220  81.9113880  67.7725120  66.0991240
  82.2637700  67.1753250  65.4392610  81.0276210  67.4469350  66.2699490
  77.9977160  68.5322810  63.5061650  78.6848290  69.0792020  63.8869240
  77.2109580  69.0763540  63.5411260  70.1369560  64.1495630  58.9978730
  71.0064410  64.4320430  59.2814650  69.6459880  64.9631500  58.8827540
  77.3004370  65.5368840  63.1187010  77.7567150  66.3474090  63.3447200
  76.9492580  65.2191980  63.9505500  79.6036980  71.0475180  70.3479310
  80.2479200  71.2534560  71.0252730  79.9666420  70.2863580  69.8950160
  80.8769060  69.0507530  69.0656760  81.5191290  68.3500690  69.1788930
  81.4018410  69.8305970  68.8853650  84.7224780  69.3356150  58.7895900
  84.4962360  68.6186590  59.3820540  84.3320980  69.0868590  57.9517650
  82.6506680  69.8502430  72.2692820  82.9862920  70.4369120  72.9470740
  81.7307020  69.7195140  72.4990610  70.5040810  73.3623010  59.5640360
  70.8638450  73.9612350  58.9097630  70.3633150  73.9082900  60.3375390
  70.2010080  57.6397610  73.0516230  69.4868600  57.8394530  73.6568840
  70.6205120  56.8637180  73.4231030  84.3041030  67.2528090  60.4510060
  84.0162730  67.7140780  61.2387940  85.0993200  66.7925860  60.7194280
  70.4882670  71.6277870  74.0382760  70.5973790  70.6872610  73.8978150
  69.8363230  71.8932620  73.3896490  78.4795260  69.8993760  75.4380880
  78.1592130  69.1803000  75.9826570  77.8053620  70.5748830  75.5116940
  76.5209430  70.7454210  60.3814030  76.5119530  71.4783900  59.7658540
  75.6007790  70.4985790  60.4740990  72.1216070  65.9669100  61.1260790
  71.5144020  66.7068000  61.1356090  72.5965420  66.0568460  60.2998990
  81.6948860  60.1319920  70.8017680  82.0629680  59.3115130  71.1297250
  80.8347060  60.1921810  71.2173330  85.0610890  59.0876860  61.6105240
  84.4324050  59.1922530  60.8963470  84.5662810  59.3073640  62.3999120
  79.5069030  70.8082450  59.0439220  79.6081010  70.6046440  58.1141200
  78.6070770  70.5540730  59.2487000  77.0294920  61.3662810  63.0263120
  76.3211070  61.8349150  63.4676730  77.3139400  60.7084820  63.6608310
  78.6550850  62.7859510  71.0255650  79.1536100  63.2605330  71.6907500
  78.7973800  61.8623030  71.2325680  81.0610350  58.0913470  64.4658910
  80.9378130  58.1099600  63.5168420  82.0094910  58.1392410  64.5857310
  78.1487140  73.3268770  63.7386890  78.4028640  73.2890160  62.8166260
  77.1999620  73.2002100  63.7315140  85.8617710  59.0027470  71.8684040
  85.3591310  59.7432870  72.2077850  86.6774370  59.3911470  71.5520830
  84.1539720  64.2460650  65.3145400  83.2129860  64.2610880  65.4893090
  84.4683790  63.4596610  65.7605700  74.1321360  65.9280250  58.8749360
  74.8984630  65.8161610  59.4374790  74.2096050  65.2318220  58.2226130
  72.8268120  63.3605320  59.5582250  72.9071710  62.4132830  59.6699650
  73.7187870  63.6912200  59.6642910  86.1565300  71.4169500  66.9899660
  86.2812720  72.2400670  67.4623470  87.0230860  71.2060230  66.6423810
  73.6282830  73.5100710  66.6616790  74.3645310  72.9616170  66.9325360
  74.0123750  74.3756720  66.5222780  70.5128310  69.5774280  62.5358300
  69.5868090  69.8195420  62.5263710  70.9784740  70.4048540  62.4143050
  76.7385140  72.6831020  58.4842360  77.5313750  72.9719850  58.0324150
  76.2189490  72.2523190  57.8054840  82.9006110  72.5306940  74.4087190
  83.8527860  72.4464960  74.3587430  82.7534330  73.1948650  75.0820980
  85.7915310  71.9101150  59.9079100  85.5056820  71.4966290  59.0933280
  85.5934860  72.8388860  59.7879620  70.3538920  65.1820240  74.7938420
  70.8577940  64.6027520  75.3654650  69.6146340  65.4660470  75.3314790
  77.2562540  67.9034430  58.3484710  77.1513180  67.2886780  59.0746090
  77.0886760  67.3800320  57.5647720  77.4076860  66.5891230  74.3273940
  76.6422530  67.1576230  74.2428610  77.5892820  66.2967440  73.4342170
  80.4965270  66.9654460  58.9526700  79.9475370  67.4123760  59.5969440
  81.1184530  66.4603710  59.4764370  84.5500210  68.3196560  74.8848960
  85.2909680  68.6572320  74.3816420  83.7872890  68.4888620  74.3318730
  76.1640390  65.9245380  60.8492000  76.5856810  65.7585250  61.6923390
  76.2891230  65.1145610  60.3547140  74.3267810  61.9041930  73.6562980
  73.7964270  61.4132880  73.0286320  74.9955880  62.3326130  73.1220910
  78.6768030  64.9482990  58.0969100  79.1973690  64.2332010  57.7310250
  79.3236430  65.5868860  58.3969610  83.2245870  66.3711390  73.4204170
  83.6386890  66.5256470  74.2694590  82.2896870  66.4966610  73.5829950
  83.6968040  63.7107550  75.4243320  84.2788810  62.9559870  75.3363800
  83.8729810  64.2414990  74.6474800  74.8140110  58.8704300  73.7360270
  74.7196980  58.2525050  73.0111140  74.2337500  59.5970590  73.5090180
  77.5801550  57.4277540  70.7687660  77.1318850  57.4501800  69.9233210
  76.9466750  57.0296560  71.3657960  77.9861100  66.3231870  71.3900100
  78.4049210  67.1664600  71.2176340  77.0669730  66.4603910  71.1606880
  80.3225000  64.0548050  72.7737940  80.4421210  63.4589190  73.5132780
  81.1819000  64.0917740  72.3539240  82.6612900  64.6085240  71.3500450
  82.1348120  65.1327860  70.7465590  83.0044240  65.2412630  71.9810180
  75.8368520  72.6284880  72.5057830  75.2989610  73.3530940  72.1866530
  76.0902480  72.1515220  71.7155170  77.0893770  60.5969400  74.0313760
  77.6793460  60.2885250  74.7191580  76.2714010  60.1249150  74.1873660
  81.9087200  60.2135210  74.2646780  81.2202720  59.5516750  74.1996770
  82.6293220  59.7673480  74.7095240  78.6930730  73.8636090  72.7644480
  78.6189430  74.7671230  73.0716850  77.7909570  73.5447990  72.7366550
  79.2416060  73.0294600  60.3870840  80.1366850  73.3679570  60.4089600
  79.2733690  72.3074010  59.7595120  72.8812220  68.4021650  58.6157840
  73.3187090  68.9451320  59.2715420  73.3659950  67.5768600  58.6254180
  70.0958020  71.1910680  66.0678100  70.4261030  70.3231740  65.8356740
  70.5249020  71.3969200  66.8983060  74.6919940  69.5219690  63.7280070
  74.3915480  69.3984660  64.6283980  74.5857430  68.6628280  63.3195800
  70.5848230  72.0581270  68.8059730  70.1479220  72.2382070  69.6383880
  71.1525910  72.8155890  68.6641450  86.2210410  71.5598270  73.0937040
  85.6212400  71.6190830  72.3500960  86.3504310  70.6203250  73.2233890
  87.4611860  69.3016090  58.4306750  86.6304820  69.3692740  58.9013980
  87.6383690  70.1920210  58.1273610  86.9168320  66.0463570  60.9340950
  87.6787230  66.6160220  61.0400640  86.9322690  65.4790770  61.7049260
  70.4172660  64.5701500  65.1648610  69.7621500  64.3013140  64.5208310
  71.2550610  64.4605980  64.7150590  87.9228290  66.9013670  65.7782880
  88.2937120  66.1180990  65.3718850  88.5630220  67.5902770  65.6000180
  84.9062050  68.2850250  71.1913200  84.0921890  68.7147410  71.4538990
  85.3136250  68.8968660  70.5782250  86.9687490  66.3397940  58.0913470
  87.2436330  67.2476820  57.9632690  86.7798230  66.2760470  59.0275460
  86.8652830  64.2766930  63.0842900  86.4896430  63.5094860  62.6524190
  86.1355950  64.6589630  63.5717830  71.4548590  64.9554070  69.7051950
  71.8221630  64.8681470  70.5847970  70.8859410  64.1920620  69.6058810
  86.2552450  63.4238450  72.7182420  86.0238540  63.1951200  71.8180370
  86.5157000  64.3438000  72.6727310  71.0064590  61.8663160  73.6110370
  70.1120640  61.8329920  73.9504080  71.5462140  62.0649950  74.3761620
  84.6940520  58.6494880  75.4962120  85.5710700  58.6578280  75.8796120
  84.7061360  57.9125720  74.8854470  86.1403790  62.5024420  66.3850140
  86.6641270  62.0087070  65.7540310  86.7263210  62.6374780  67.1297710
  86.3193510  62.5864290  69.9069690  85.3696220  62.5527830  70.0214680
  86.5006520  63.4964400  69.6719460  85.6303760  61.7597770  62.3242550
  86.1262880  61.5268640  63.1091430  85.4319830  60.9209610  61.9080190
  71.5104300  56.1411490  67.9593590  72.1580490  55.5908870  67.5188750
  71.9306140  56.3954640  68.7809400  87.0590920  60.3958720  64.8580230
  86.9490200  60.2414760  65.7962500  87.8198510  59.8679660  64.6155640
  85.4056640  56.3352850  71.3163230  86.0428860  56.9486990  71.6822420
  85.5531530  56.3713510  70.3712460  87.9481190  58.2266640  58.0986370
  88.8730500  58.0947820  57.8904660  87.9256980  58.3059460  59.0522820
  88.0219680  58.9977300  60.7243080  87.2271180  58.9322420  61.2535990
  88.2262960  59.9327940  60.7128430  84.9638100  73.0368850  64.7181470
  85.5597170  72.7153420  64.0415890  85.2216250  72.5640670  65.5094740
  71.2636300  56.2967160  70.7018910  70.9151120  56.7530980  71.4677090
  70.9324000  55.4024290  70.7841340  72.8700670  69.4686760  74.8672100
  72.8270300  69.0979670  75.7486560  73.0011680  70.4064330  75.0073920
  76.5706700  71.0246350  70.4681820  76.3298060  71.2920910  69.5812340
  77.5109340  71.1952080  70.5232680  78.7761120  57.4879040  74.2238330
  78.7150010  58.0800870  74.9733740  79.7161500  57.3805000  74.0788590
  81.4135680  57.1449100  73.8630620  82.0276090  57.4628390  73.2011700
  81.9585240  56.6597690  74.4826480  87.8310860  73.0440730  71.2692460
  87.3369140  73.4409600  70.5519590  87.2224150  72.4189940  71.6629740
  71.9356940  55.8243360  73.9769680  72.4839930  55.6431410  73.2135790
  72.0012250  55.0337470  74.5125990  72.7088700  72.4149010  71.9869880
  72.1149020  72.2833710  72.7259920  72.7012540  71.5787150  71.5211980
  82.1543720  55.7081240  70.1899910  81.2803560  56.0416350  69.9872840
  82.0454470  55.2354420  71.0151780  83.0615700  57.9152110  71.5741630
  82.7329060  57.1003870  71.1943360  84.0098000  57.8721920  71.4507320
  85.5150310  73.6864150  68.5479200  85.0553280  74.4379960  68.1737220
  84.8862770  72.9670620  68.4894000  72.3400930  69.7807390  70.9377920
  71.6134990  69.1612680  70.8703870  72.4010080  70.1748000  70.0676000
  75.9446030  71.9952390  67.7227330  76.4611050  71.3839750  67.1975590
  76.5943410  72.4981170  68.2138340  78.6841530  72.8860880  68.5496310
  78.9719340  72.6315180  67.6729320  79.1964750  72.3338240  69.1401880
  79.9018540  56.6251080  69.1292820  79.1190330  57.0996580  69.4089580
  79.6081470  55.7205910  69.0206000  84.4539610  57.3274180  67.1741910
  84.8947700  57.2719280  66.3263510  84.1847200  58.2432190  67.2452090
  86.3178180  56.9589420  65.1850730  86.2566580  56.0150640  65.0381750
  87.0970210  57.0669510  65.7304190  70.6230930  73.0981780  64.1474680
  70.4552970  72.4652460  64.8456570  69.7565440  73.3041180  63.7968870
  77.7872760  59.0437830  64.6408850  76.9747270  58.6694720  64.3004730
  78.2914400  58.2882910  64.9430040  82.2897740  55.7080280  65.8791920
  82.8927110  56.2800490  66.3540440  81.5490730  56.2719720  65.6565820
  72.2293630  71.7915010  61.5924820  71.7041250  72.1723040  60.8886780
  72.1538210  72.4165780  62.3134530  78.7513890  73.8076980  75.9164510
  79.6781200  73.5721250  75.9600470  78.7364320  74.6348980  75.4350540
  86.9858950  73.3502550  62.9138760  87.1611140  72.6640290  62.2699680
  86.2880520  73.8749600  62.5215430  75.9377500  56.4721730  75.6806390
  75.6561770  56.9755330  74.9167210  76.3197200  55.6743480  75.3148520
  74.8286600  73.7397390  60.4674070  75.5605420  73.4556670  59.9197960
  75.0880270  73.5010670  61.3573450  73.9901390  69.8562120  60.4720400
  73.3610270  70.3247220  61.0206230  74.1049220  69.0111340  60.9066590
  84.2180080  72.1990160  52.4733200  83.7410640  73.0062350  52.2805810
  83.5341870  71.5468490  52.6259410  75.8464470  71.1775000  56.2460420
  75.8179900  71.5817950  55.3788850  75.6829440  70.2485360  56.0832020
  87.7979290  71.9602100  57.5424590  88.2739010  72.4384990  58.2213670
  88.4186450  71.8919590  56.8170090  87.2012540  69.1514950  54.7024600
  87.3275600  68.9126830  53.7841780  87.2433920  68.3199490  55.1746680
  81.0629280  72.8542950  53.2719410  81.5773950  72.7650960  54.0741840
  80.2198360  73.2002650  53.5647320  75.5172060  72.9196820  44.4775030
  75.3414540  72.0032360  44.2642830  74.6627800  73.2784110  44.7172830
  77.0594490  63.1989930  55.9242730  76.9638090  62.2584660  55.7743130
  77.9026470  63.4205000  55.5290800  80.2386350  66.5837040  54.7291520
  80.1723660  65.6632710  54.4749110  79.6091490  66.6812480  55.4436160
  80.1703080  69.4057610  54.4795320  80.1847620  68.4738570  54.2614230
  79.4628180  69.4917370  55.1185090  82.6506680  69.8502430  53.4949330
  82.9862920  70.4369120  54.1727250  81.7307020  69.7195140  53.7247120
  70.5040810  73.3623010  40.7896870  70.8638450  73.9612350  40.1354140
  70.3633150  73.9082900  41.5631900  70.4882670  71.6277870  55.2639270
  70.5973790  70.6872610  55.1234660  69.8363230  71.8932620  54.6153000
  78.4795260  69.8993760  56.6637390  78.1592130  69.1803000  57.2083080
  77.8053620  70.5748830  56.7373450  78.1487140  73.3268770  44.9643400
  78.4028640  73.2890160  44.0422770  77.1999620  73.2002100  44.9571650
  73.6282830  73.5100710  47.8873300  74.3645310  72.9616170  48.1581870
  74.0123750  74.3756720  47.7479290  72.6341110  72.6946780  57.0758880
  73.4353840  73.0158830  57.4894280  72.1192930  72.3342360  57.7978790
  81.4705740  68.8026650  57.0234290  80.8643900  68.8258250  56.2830040
  81.1659850  68.0709690  57.5601540  82.9006110  72.5306940  55.6343700
  83.8527860  72.4464960  55.5843940  82.7534330  73.1948650  56.3077490
  70.3538920  65.1820240  56.0194930  70.8577940  64.6027520  56.5911160
  69.6146340  65.4660470  56.5571300  84.5500210  68.3196560  56.1105470
  85.2909680  68.6572320  55.6072930  83.7872890  68.4888620  55.5575240
  83.2245870  66.3711390  54.6460680  83.6386890  66.5256470  55.4951100
  82.2896870  66.4966610  54.8086460  75.8368520  72.6284880  53.7314340
  75.2989610  73.3530940  53.4123040  76.0902480  72.1515220  52.9411680
  78.6930730  73.8636090  53.9900990  78.6189430  74.7671230  54.2973360
  77.7909570  73.5447990  53.9623060  86.2210410  71.5598270  54.3193550
  85.6212400  71.6190830  53.5757470  86.3504310  70.6203250  54.4490400
  72.8700670  69.4686760  56.0928610  72.8270300  69.0979670  56.9743070
  73.0011680  70.4064330  56.2330430  76.5706700  71.0246350  51.6938330
  76.3298060  71.2920910  50.8068850  77.5109340  71.1952080  51.7489190
  87.8310860  73.0440730  52.4948970  87.3369140  73.4409600  51.7776100
  87.2224150  72.4189940  52.8886250  72.7088700  72.4149010  53.2126390
  72.1149020  72.2833710  53.9516430  72.7012540  71.5787150  52.7468490
  85.5150310  73.6864150  49.7735710  85.0553280  74.4379960  49.3993730
  84.8862770  72.9670620  49.7150510  70.6230930  73.0981780  45.3731190
  70.4552970  72.4652460  46.0713080  69.7565440  73.3041180  45.0225380
  72.2293630  71.7915010  42.8181330  71.7041250  72.1723040  42.1143290
  72.1538210  72.4165780  43.5391040  78.7513890  73.8076980  57.1421020
  79.6781200  73.5721250  57.1856980  78.7364320  74.6348980  56.6607050
  85.3191450  73.0346840  56.9662060  86.1116770  72.5396070  56.7588020
  85.6124600  73.7136980  57.5737670  74.1788320  59.5400000  25.4243910
  74.2855070  60.4403730  25.7312670  73.2680680  59.4917970  25.1338560
  84.5135850  68.7860670  25.7345180  84.4032180  67.8435000  25.8594600
  84.5104100  69.1476310  26.6207940  84.0853420  65.9746290  25.5942920
  83.4665840  65.6365840  24.9469220  84.0677870  65.3306050  26.3022110
  87.7979290  71.9602100  38.7681100  88.2739010  72.4384990  39.4470180
  88.4186450  71.8919590  38.0426600  83.0383680  73.1398290  23.9259920
  82.8784820  72.8501230  24.8241750  82.8730390  72.3638420  23.3905150
  82.7409810  70.6485850  22.4857920  82.0474970  70.6463140  21.8260200
  83.4832670  70.2245170  22.0552090  77.9439880  56.7981480  23.6363550
  77.3194060  56.7941350  24.3616860  77.8570000  55.9312440  23.2399520
  69.6792310  61.4752180  20.5465820  69.5966980  62.4182940  20.6880810
  69.3275370  61.3327090  19.6678170  80.3177490  57.9065940  24.2108420
  79.5042100  57.4079110  24.1353730  80.1239440  58.7464190  23.7944770
  83.0325880  62.2785590  22.5070580  83.9205500  62.5902820  22.3321920
  83.0030970  61.4057840  22.1151160  85.3040150  63.5897430  21.9750440
  85.2203870  64.0211650  21.1246880  86.0234340  64.0495780  22.4077260
  86.3327400  70.4439690  24.7032570  85.6903560  69.7895310  24.9776290
  85.9458060  70.8494780  23.9273240  73.2016150  55.8806490  26.0422550
  73.0730780  55.8724390  26.9907470  72.3778170  56.2189580  25.6913560
  84.7224780  69.3356150  21.2408920  84.4962360  68.6186590  21.8333560
  84.3320980  69.0868590  20.4030670  70.5040810  73.3623010  22.0153380
  70.8638450  73.9612350  21.3610650  70.3633150  73.9082900  22.7888410
  84.3041030  67.2528090  22.9023080  84.0162730  67.7140780  23.6900960
  85.0993200  66.7925860  23.1707300  79.5069030  70.8082450  21.4952240
  79.6081010  70.6046440  20.5654220  78.6070770  70.5540730  21.7000020
  75.2329940  59.6747890  22.8526850  76.0820470  60.1118040  22.7867040
  74.8661210  59.9868150  23.6798910  85.7915310  71.9101150  22.3592120
  85.5056820  71.4966290  21.5446300  85.5934860  72.8388860  22.2392640
  75.0599290  61.9978610  20.2463180  74.8588350  61.1345970  20.6076520
  74.8891340  61.9111970  19.3084780  82.5387600  56.8086840  22.7750060
  82.8189890  55.9654740  23.1309480  81.7653330  57.0409950  23.2888810
  73.8582090  59.0979230  20.2341060  74.1607990  59.1046660  19.3260210
  74.5976680  58.7477090  20.7308720  77.0767020  58.0413850  21.2197260
  76.7289020  57.3637840  20.6399710  77.2779790  57.5803360  22.0340650
  79.2416060  73.0294600  22.8383860  80.1366850  73.3679570  22.8602620
  79.2733690  72.3074010  22.2108140  87.4611860  69.3016090  20.8819770
  86.6304820  69.3692740  21.3527000  87.6383690  70.1920210  20.5786630
  86.9168320  66.0463570  23.3853970  87.6787230  66.6160220  23.4913660
  86.9322690  65.4790770  24.1562280  86.9687490  66.3397940  20.5426490
  87.2436330  67.2476820  20.4145710  86.7798230  66.2760470  21.4788480
  83.3663100  59.3642790  21.8380120  83.7847980  59.1773770  20.9976780
  83.0599160  58.5121840  22.1483050  86.8652830  64.2766930  25.5355920
  86.4896430  63.5094860  25.1037210  86.1355950  64.6589630  26.0230850
  72.1737950  60.8365970  21.4681340  72.8829650  60.4149190  20.9828620
  71.4577890  60.9041200  20.8364690  71.8212110  56.8905300  20.5083990
  72.5440240  57.4314240  20.8265210  72.0936630  56.6168720  19.6325530
  85.6303760  61.7597770  24.7755570  86.1262880  61.5268640  25.5604450
  85.4319830  60.9209610  24.3593210  87.9481190  58.2266640  20.5499390
  88.8730500  58.0947820  20.3417680  87.9256980  58.3059460  21.5035840
  84.9638100  73.0368850  27.1694490  85.5597170  72.7153420  26.4928910
  85.2216250  72.5640670  27.9607760  70.6230930  73.0981780  26.5987700
  70.4552970  72.4652460  27.2969590  69.7565440  73.3041180  26.2481890
  71.2458950  56.9298560  24.1019560  72.0038310  57.0427440  23.5283590
  70.7836120  57.7667760  24.0562990  73.6184100  57.4562610  22.6421530
  74.1476860  56.6692410  22.5129480  74.2512420  58.1353800  22.8757060
  75.8121940  57.1937750  25.6966920  75.1824680  56.4925060  25.8637050
  75.2727080  57.9541880  25.4800080  86.9858950  73.3502550  25.3651780
  87.1611140  72.6640290  24.7212700  86.2880520  73.8749600  24.9728450
  81.4451110  63.9067780   9.0734620  81.3645160  62.9922390   8.8026330
  81.0315530  64.4034850   8.3674330  79.5769150  65.6846800  10.9543890
  78.8011250  65.2047240  11.2442460  80.2282080  65.0052450  10.7800050
  73.5934980  65.9966610  11.8319650  72.7619860  65.7415320  12.2316160
  74.2015960  66.0677380  12.5677570  83.5976580  70.0906990   9.7343020
  83.1358110  69.3194230  10.0630190  84.4102130  70.1173060  10.2395470
  73.5736240  70.0306700  12.0277670  73.8764280  69.1404440  11.8487890
  74.3179830  70.5876920  11.7999920  72.0026930  60.9568500   5.6162040
  71.1143630  61.2984470   5.5141920  72.2868120  60.7568820   4.7242870
  69.9659940  63.5574150  11.5001740  70.5376050  62.7896350  11.5005380
  69.9661480  63.8562910  10.5908350  79.8239890  72.3765000   9.3547010
  79.2051330  72.8322500   8.7841450  80.6791670  72.5316460   8.9536710
  79.0178140  68.3603990  10.9614050  78.9486420  67.4193930  10.8003180
  79.7798000  68.4505400  11.5336620  71.2084810  58.9658510  13.2870670
  71.0287650  58.0684260  13.5673430  70.8064890  59.5130380  13.9617620
  80.0483310  61.1674370  11.1882980  80.4248130  60.2946250  11.0756650
  79.9502820  61.5033070  10.2973420  74.1788320  59.5400000   6.6500420
  74.2855070  60.4403730   6.9569180  73.2680680  59.4917970   6.3595070
  83.8307430  58.6624810   8.1211320  84.6517050  58.1721380   8.1636800
  83.8641510  59.2522470   8.8743160  71.8271480  61.4619010  11.8953010
  72.5081590  61.7257380  12.5140410  71.5119530  60.6219880  12.2291020
  76.0196050  62.5086370  10.9825600  76.5274270  63.0067340  11.6230620
  76.5509290  61.7321570  10.8064960  88.1206980  60.6791560  14.6854950
  87.4159150  61.0673270  14.1670060  88.3864900  61.3741850  15.2875880
  74.3032150  57.1484930  15.2489020  74.3050590  57.6657320  14.4434920
  73.4736460  56.6715110  15.2258950  80.6903240  67.2604240   6.7478920
  80.0720510  67.7253690   6.1841640  81.2026490  67.9531720   7.1648430
  75.5535000  66.7880110  13.4262520  75.2204380  67.4149030  14.0683590
  75.7301680  67.3141990  12.6464190  84.0668910  60.6025190  10.8938860
  83.3624480  60.8910080  11.4741970  84.4281070  61.4125300  10.5338420
  73.9847480  58.8594890  13.2559470  74.3264290  59.7036940  12.9613340
  73.0463290  59.0078630  13.3724810  74.7654100  68.7560910  15.2411700
  75.3828100  69.4311990  14.9596150  73.9047220  69.1648890  15.1499200
  70.0586440  67.9460770   4.1218550  69.6814420  68.4347870   3.3903450
  70.3159510  68.6186050   4.7525080  85.6831690  70.2200320  13.1566340
  84.9995210  70.8899430  13.1483010  86.2225980  70.4180970  12.3911200
  87.1355830  60.0479980  11.2848070  86.1880740  60.0818960  11.4163500
  87.4605820  60.8618930  11.6697430  77.6675370  56.3477160   9.5804060
  77.9750350  55.7924050   8.8639560  76.7376070  56.4821620   9.3977050
  83.2190430  72.0644450  11.8711520  83.2317590  71.6606740  11.0033780
  82.6665650  72.8391740  11.7672950  84.5135850  68.7860670   6.9601690
  84.4032180  67.8435000   7.0851110  84.5104100  69.1476310   7.8464450
  82.6175870  66.9674290  13.1994130  83.0344660  66.7534400  12.3647590
  83.3415690  67.2247080  13.7702750  80.0556130  64.4125990   6.3164180
  79.1285410  64.3463370   6.5452650  80.2080950  65.3506120   6.2019420
  80.0425210  60.6842990   3.3131340  79.1028880  60.8456950   3.3983800
  80.3608470  61.4028670   2.7667330  86.5637970  65.3661510  13.2910370
  85.7356600  65.4354600  12.8160500  87.1588450  65.9515820  12.8226200
  84.0853420  65.9746290   6.8199430  83.4665840  65.6365840   6.1725730
  84.0677870  65.3306050   7.5278620  83.5279980  62.1530830  14.2365240
  83.1151160  62.9784540  14.4905230  82.7955930  61.5675870  14.0441600
  75.6612770  64.9390730   9.0983910  75.2569770  64.2267980   8.6029810
  75.7475890  64.5943970   9.9871950  76.1294470  68.6258290  11.2623120
  75.8322760  68.0203760  10.5830900  77.0794290  68.6635600  11.1512480
  74.3741390  61.7133940  12.8782950  74.9255980  61.8229280  12.1036200
  74.8884900  62.0871540  13.5938180  84.2180080  72.1990160  14.9246220
  83.7410640  73.0062350  14.7318830  83.5341870  71.5468490  15.0772430
  75.2212900  68.3639980  17.9130920  74.3241430  68.5879950  18.1604320
  75.2465770  68.4874920  16.9642320  82.2618120  65.2133100   3.8272180
  82.7011400  64.3755530   3.6810000  82.9746540  65.8462500   3.9136320
  74.0484120  65.2353300  16.4888290  73.9091890  66.1076100  16.8575690
  73.1665480  64.8926110  16.3436230  80.3713500  70.1529170   7.7953420
  80.8109410  70.8953500   7.3808810  80.3100390  70.3955740   8.7192380
  75.8464470  71.1775000  18.6973440  75.8179900  71.5817950  17.8301870
  75.6829440  70.2485360  18.5345040  85.8435260  56.4675910   2.1413220
  85.5307920  56.5602740   3.0412290  86.6047730  57.0456940   2.0910650
  72.3617400  63.8335710   6.5990560  72.2415000  64.5597800   5.9871830
  72.0518290  63.0638620   6.1218470  87.7979290  71.9602100  19.9937610
  88.2739010  72.4384990  20.6726690  88.4186450  71.8919590  19.2683110
  70.0002770  67.0050850  12.4059200  70.0783190  67.1399620  11.4614920
  70.6144450  66.2966740  12.5987320  71.2450400  68.7051040   8.8165380
  70.8378480  68.8465630   7.9618980  72.1363410  68.4211200   8.6136590
  87.2012540  69.1514950  17.1537620  87.3275600  68.9126830  16.2354800
  87.2433920  68.3199490  17.6259700  81.0629280  72.8542950  15.7232430
  81.5773950  72.7650960  16.5254860  80.2198360  73.2002650  16.0160340
  83.0383680  73.1398290   5.1516430  82.8784820  72.8501230   6.0498260
  82.8730390  72.3638420   4.6161660  75.5172060  72.9196820   6.9288050
  75.3414540  72.0032360   6.7155850  74.6627800  73.2784110   7.1685850
  82.7409810  70.6485850   3.7114430  82.0474970  70.6463140   3.0516710
  83.4832670  70.2245170   3.2808600  82.3059740  72.2748560   7.7862920
  82.7616690  71.4937940   8.1001540  82.6452260  72.9855380   8.3304100
  87.0536550  61.2047410  18.1187360  86.4380820  61.7127080  17.5902820
  86.7332970  60.3045740  18.0613300  70.0562290  68.0465020  14.9453660
  70.2193330  67.5770380  14.1273030  70.5214740  67.5388580  15.6102500
  74.8281060  57.1770780   9.9814230  74.3849210  57.9580320   9.6498750
  75.3866050  57.5000670  10.6885170  79.1150870  60.0439300  15.5849550
  78.6530240  60.2522320  16.3969490  78.7128980  59.2298650  15.2820220
  84.1155380  61.2648250  16.7146210  83.2648970  60.9654000  17.0355280
  83.9557170  61.5090260  15.8030030  81.2105090  62.7650000  18.8145000
  81.5358500  61.9313750  18.4747230  81.9985420  63.2878520  18.9623330
  77.9439880  56.7981480   4.8620060  77.3194060  56.7941350   5.5873370
  77.8570000  55.9312440   4.4656030  76.8656960  57.7218110  11.8403830
  77.1629290  58.6280940  11.7595850  77.4142520  57.2336890  11.2263400
  74.6195280  62.3004350   7.7095480  74.3936200  62.0841520   8.6142100
  73.8387810  62.7332810   7.3641450  81.8493040  62.3067720   6.3086130
  81.2501930  63.0303520   6.1249750  82.3972650  62.2444500   5.5262580
  77.0594490  63.1989930  18.3755750  76.9638090  62.2584660  18.2256150
  77.9026470  63.4205000  17.9803820  80.4557910  60.9431260   8.3389410
  80.8487480  61.2603460   7.5258100  80.8174760  60.0643140   8.4533930
  72.1905030  59.6103600  16.5289530  71.7968420  60.4578810  16.7362310
  71.5023430  58.9729970  16.7198170  78.7650080  59.6938570  19.5986270
  78.0748400  59.5010770  20.2332360  79.5082380  59.9773210  20.1310570
  69.4922080  57.5332060  10.5619610  69.2035130  58.1034920  11.2744590
  70.2367840  57.0536510  10.9250840  81.0413050  63.5337010  12.4340190
  80.3094170  64.0423820  12.7830290  80.6437390  62.7166990  12.1328970
  77.4790440  60.2091210  10.8392680  77.4826500  59.7681160   9.9897220
  78.3741560  60.5308540  10.9464500  73.3292820  60.0917700   9.7986890
  72.9892870  60.5692930  10.5553940  72.5670140  59.6382820   9.4387990
  77.5410590  61.2103290   3.8299440  77.6623410  61.1689770   4.7785260
  77.1559100  62.0727440   3.6746170  81.5038960  58.9870690  11.8463130
  81.5211700  59.4379340  12.6904980  81.2554540  58.0876330  12.0596570
  76.5532090  63.5204430   3.2282740  75.9848990  63.0722680   2.6018650
  77.2621090  63.8797210   2.6947890  84.9309710  56.4002870  17.6849510
  85.2555480  55.6692530  18.2107490  84.9666220  56.0816510  16.7830500
  71.6301270  67.4216450  17.1049470  71.2456060  66.7810120  17.7032430
  71.9413460  68.1252570  17.6744200  77.7798410  64.2692990  12.5858090
  78.1468540  63.7951560  13.3319430  77.5903470  65.1434560  12.9266430
  70.6438900  59.0136680   8.7151560  70.3585820  58.6492350   9.5530180
  70.5817760  58.2817140   8.1014700  75.5697780  63.3101630  14.9042300
  75.2654850  64.1893610  15.1292660  76.5244240  63.3701420  14.9399740
  74.0979570  67.5162620   5.5009150  73.3241830  66.9760240   5.3407870
  74.8274200  66.9969230   5.1626910  84.8567550  66.5127980  11.2935540
  85.5766670  67.0083270  10.9031650  84.6549370  65.8345870  10.6489410
  80.3177490  57.9065940   5.4364930  79.5042100  57.4079110   5.3610240
  80.1239440  58.7464190   5.0201280  80.2386350  66.5837040  17.1804540
  80.1723660  65.6632710  16.9262130  79.6091490  66.6812480  17.8949180
  83.0325880  62.2785590   3.7327090  83.9205500  62.5902820   3.5578430
  83.0030970  61.4057840   3.3407670  74.1416970  67.1843000   9.1387960
  74.6595640  66.3811260   9.0844850  73.6900990  67.1222140   9.9804790
  79.0286470  68.4509280   4.4115260  79.3702170  69.1951510   3.9158580
  78.1999180  68.7640400   4.7740090  71.6261510  64.1504370  16.0513660
  71.2676450  64.8158220  16.6387000  71.3316070  63.3187920  16.4226280
  80.1703080  69.4057610  16.9308340  80.1847620  68.4738570  16.7127250
  79.4628180  69.4917370  17.5698110  85.3040150  63.5897430   3.2006950
  85.2203870  64.0211650   2.3503390  86.0234340  64.0495780   3.6333770
  86.3814290  66.0464950  16.2776920  85.6562480  66.6393730  16.0806310
  86.9089750  66.0388490  15.4790290  86.3327400  70.4439690   5.9289080
  85.6903560  69.7895310   6.2032800  85.9458060  70.8494780   5.1529750
  81.9113880  67.7725120   9.7760770  82.2637700  67.1753250   9.1162140
  81.0276210  67.4469350   9.9469020  77.9977160  68.5322810   7.1831180
  78.6848290  69.0792020   7.5638770  77.2109580  69.0763540   7.2180790
  70.1369560  64.1495630   2.6748260  71.0064410  64.4320430   2.9584180
  69.6459880  64.9631500   2.5597070  77.3004370  65.5368840   6.7956540
  77.7567150  66.3474090   7.0216730  76.9492580  65.2191980   7.6275030
  79.6036980  71.0475180  14.0248840  80.2479200  71.2534560  14.7022260
  79.9666420  70.2863580  13.5719690  73.2016150  55.8806490   7.2679060
  73.0730780  55.8724390   8.2163980  72.3778170  56.2189580   6.9170070
  80.8769060  69.0507530  12.7426290  81.5191290  68.3500690  12.8558460
  81.4018410  69.8305970  12.5623180  84.7224780  69.3356150   2.4665430
  84.4962360  68.6186590   3.0590070  84.3320980  69.0868590   1.6287180
  82.6506680  69.8502430  15.9462350  82.9862920  70.4369120  16.6240270
  81.7307020  69.7195140  16.1760140  70.5040810  73.3623010   3.2409890
  70.8638450  73.9612350   2.5867160  70.3633150  73.9082900   4.0144920
  70.2010080  57.6397610  16.7285760  69.4868600  57.8394530  17.3338370
  70.6205120  56.8637180  17.1000560  84.3041030  67.2528090   4.1279590
  84.0162730  67.7140780   4.9157470  85.0993200  66.7925860   4.3963810
  70.4882670  71.6277870  17.7152290  70.5973790  70.6872610  17.5747680
  69.8363230  71.8932620  17.0666020  78.4795260  69.8993760  19.1150410
  78.1592130  69.1803000  19.6596100  77.8053620  70.5748830  19.1886470
  76.5209430  70.7454210   4.0583560  76.5119530  71.4783900   3.4428070
  75.6007790  70.4985790   4.1510520  72.1216070  65.9669100   4.8030320
  71.5144020  66.7068000   4.8125620  72.5965420  66.0568460   3.9768520
  81.6948860  60.1319920  14.4787210  82.0629680  59.3115130  14.8066780
  80.8347060  60.1921810  14.8942860  85.0610890  59.0876860   5.2874770
  84.4324050  59.1922530   4.5733000  84.5662810  59.3073640   6.0768650
  79.5069030  70.8082450   2.7208750  79.6081010  70.6046440   1.7910730
  78.6070770  70.5540730   2.9256530  77.0294920  61.3662810   6.7032650
  76.3211070  61.8349150   7.1446260  77.3139400  60.7084820   7.3377840
  78.6550850  62.7859510  14.7025180  79.1536100  63.2605330  15.3677030
  78.7973800  61.8623030  14.9095210  81.0610350  58.0913470   8.1428440
  80.9378130  58.1099600   7.1937950  82.0094910  58.1392410   8.2626840
  78.1487140  73.3268770   7.4156420  78.4028640  73.2890160   6.4935790
  77.1999620  73.2002100   7.4084670  75.2329940  59.6747890   4.0783360
  76.0820470  60.1118040   4.0123550  74.8661210  59.9868150   4.9055420
  85.8617710  59.0027470  15.5453570  85.3591310  59.7432870  15.8847380
  86.6774370  59.3911470  15.2290360  84.1539720  64.2460650   8.9914930
  83.2129860  64.2610880   9.1662620  84.4683790  63.4596610   9.4375230
  74.1321360  65.9280250   2.5518890  74.8984630  65.8161610   3.1144320
  74.2096050  65.2318220   1.8995660  72.8268120  63.3605320   3.2351780
  72.9071710  62.4132830   3.3469180  73.7187870  63.6912200   3.3412440
  86.1565300  71.4169500  10.6669190  86.2812720  72.2400670  11.1393000
  87.0230860  71.2060230  10.3193340  73.6282830  73.5100710  10.3386320
  74.3645310  72.9616170  10.6094890  74.0123750  74.3756720  10.1992310
  70.5128310  69.5774280   6.2127830  69.5868090  69.8195420   6.2033240
  70.9784740  70.4048540   6.0912580  72.6341110  72.6946780  19.5271900
  73.4353840  73.0158830  19.9407300  72.1192930  72.3342360  20.2491810
  76.7385140  72.6831020   2.1611890  77.5313750  72.9719850   1.7093680
  76.2189490  72.2523190   1.4824370  81.4705740  68.8026650  19.4747310
  80.8643900  68.8258250  18.7343060  81.1659850  68.0709690  20.0114560
  82.9006110  72.5306940  18.0856720  83.8527860  72.4464960  18.0356960
  82.7534330  73.1948650  18.7590510  85.7915310  71.9101150   3.5848630
  85.5056820  71.4966290   2.7702810  85.5934860  72.8388860   3.4649150
  70.3538920  65.1820240  18.4707950  70.8577940  64.6027520  19.0424180
  69.6146340  65.4660470  19.0084320  77.4076860  66.5891230  18.0043470
  76.6422530  67.1576230  17.9198140  77.5892820  66.2967440  17.1111700
  80.4965270  66.9654460   2.6296230  79.9475370  67.4123760   3.2738970
  81.1184530  66.4603710   3.1533900  84.5500210  68.3196560  18.5618490
  85.2909680  68.6572320  18.0585950  83.7872890  68.4888620  18.0088260
  72.3862000  63.3249830  19.3658020  72.4267340  63.0263700  20.2743250
  73.2407500  63.7257440  19.2065540  76.1640390  65.9245380   4.5261530
  76.5856810  65.7585250   5.3692920  76.2891230  65.1145610   4.0316670
  74.3267810  61.9041930  17.3332510  73.7964270  61.4132880  16.7055850
  74.9955880  62.3326130  16.7990440  83.2245870  66.3711390  17.0973700
  83.6386890  66.5256470  17.9464120  82.2896870  66.4966610  17.2599480
  83.6968040  63.7107550  19.1012850  84.2788810  62.9559870  19.0133330
  83.8729810  64.2414990  18.3244330  74.8140110  58.8704300  17.4129800
  74.7196980  58.2525050  16.6880670  74.2337500  59.5970590  17.1859710
  77.5801550  57.4277540  14.4457190  77.1318850  57.4501800  13.6002740
  76.9466750  57.0296560  15.0427490  77.9861100  66.3231870  15.0669630
  78.4049210  67.1664600  14.8945870  77.0669730  66.4603910  14.8376410
  80.3225000  64.0548050  16.4507470  80.4421210  63.4589190  17.1902310
  81.1819000  64.0917740  16.0308770  82.6612900  64.6085240  15.0269980
  82.1348120  65.1327860  14.4235120  83.0044240  65.2412630  15.6579710
  75.8368520  72.6284880  16.1827360  75.2989610  73.3530940  15.8636060
  76.0902480  72.1515220  15.3924700  77.0893770  60.5969400  17.7083290
  77.6793460  60.2885250  18.3961110  76.2714010  60.1249150  17.8643190
  81.9087200  60.2135210  17.9416310  81.2202720  59.5516750  17.8766300
  82.6293220  59.7673480  18.3864770  82.5387600  56.8086840   4.0006570
  82.8189890  55.9654740   4.3565990  81.7653330  57.0409950   4.5145320
  78.6930730  73.8636090  16.4414010  78.6189430  74.7671230  16.7486380
  77.7909570  73.5447990  16.4136080  77.0767020  58.0413850   2.4453770
  76.7289020  57.3637840   1.8656220  77.2779790  57.5803360   3.2597160
  79.2416060  73.0294600   4.0640370  80.1366850  73.3679570   4.0859130
  79.2733690  72.3074010   3.4364650  72.8812220  68.4021650   2.2927370
  73.3187090  68.9451320   2.9484950  73.3659950  67.5768600   2.3023710
  70.0958020  71.1910680   9.7447630  70.4261030  70.3231740   9.5126270
  70.5249020  71.3969200  10.5752590  74.6919940  69.5219690   7.4049600
  74.3915480  69.3984660   8.3053510  74.5857430  68.6628280   6.9965330
  70.5848230  72.0581270  12.4829260  70.1479220  72.2382070  13.3153410
  71.1525910  72.8155890  12.3410980  86.2210410  71.5598270  16.7706570
  85.6212400  71.6190830  16.0270490  86.3504310  70.6203250  16.9003420
  87.4611860  69.3016090   2.1076280  86.6304820  69.3692740   2.5783510
  87.6383690  70.1920210   1.8043140  86.9168320  66.0463570   4.6110480
  87.6787230  66.6160220   4.7170170  86.9322690  65.4790770   5.3818790
  70.4172660  64.5701500   8.8418140  69.7621500  64.3013140   8.1977840
  71.2550610  64.4605980   8.3920120  87.9228290  66.9013670   9.4552410
  88.2937120  66.1180990   9.0488380  88.5630220  67.5902770   9.2769710
  84.9062050  68.2850250  14.8682730  84.0921890  68.7147410  15.1308520
  85.3136250  68.8968660  14.2551780  86.9687490  66.3397940   1.7683000
  87.2436330  67.2476820   1.6402220  86.7798230  66.2760470   2.7044990
  83.3663100  59.3642790   3.0636630  83.7847980  59.1773770   2.2233290
  83.0599160  58.5121840   3.3739560  86.8652830  64.2766930   6.7612430
  86.4896430  63.5094860   6.3293720  86.1355950  64.6589630   7.2487360
  71.4548590  64.9554070  13.3821480  71.8221630  64.8681470  14.2617500
  70.8859410  64.1920620  13.2828340  86.2552450  63.4238450  16.3951950
  86.0238540  63.1951200  15.4949900  86.5157000  64.3438000  16.3496840
  71.0064590  61.8663160  17.2879900  70.1120640  61.8329920  17.6273610
  71.5462140  62.0649950  18.0531150  84.6940520  58.6494880  19.1731650
  85.5710700  58.6578280  19.5565650  84.7061360  57.9125720  18.5624000
  69.6310740  61.7800430   4.7843470  68.7274820  62.0430630   4.6095130
  70.1151360  62.0511600   4.0043430  86.1403790  62.5024420  10.0619670
  86.6641270  62.0087070   9.4309840  86.7263210  62.6374780  10.8067240
  86.3193510  62.5864290  13.5839220  85.3696220  62.5527830  13.6984210
  86.5006520  63.4964400  13.3488990  72.1737950  60.8365970   2.6937850
  72.8829650  60.4149190   2.2085130  71.4577890  60.9041200   2.0621200
  85.6303760  61.7597770   6.0012080  86.1262880  61.5268640   6.7860960
  85.4319830  60.9209610   5.5849720  71.5104300  56.1411490  11.6363120
  72.1580490  55.5908870  11.1958280  71.9306140  56.3954640  12.4578930
  87.0590920  60.3958720   8.5349760  86.9490200  60.2414760   9.4732030
  87.8198510  59.8679660   8.2925170  85.4056640  56.3352850  14.9932760
  86.0428860  56.9486990  15.3591950  85.5531530  56.3713510  14.0481990
  87.9481190  58.2266640   1.7755900  88.8730500  58.0947820   1.5674190
  87.9256980  58.3059460   2.7292350  88.0219680  58.9977300   4.4012610
  87.2271180  58.9322420   4.9305520  88.2262960  59.9327940   4.3897960
  84.9638100  73.0368850   8.3951000  85.5597170  72.7153420   7.7185420
  85.2216250  72.5640670   9.1864270  71.2636300  56.2967160  14.3788440
  70.9151120  56.7530980  15.1446620  70.9324000  55.4024290  14.4610870
  72.8700670  69.4686760  18.5441630  72.8270300  69.0979670  19.4256090
  73.0011680  70.4064330  18.6843450  76.5706700  71.0246350  14.1451350
  76.3298060  71.2920910  13.2581870  77.5109340  71.1952080  14.2002210
  78.7761120  57.4879040  17.9007860  78.7150010  58.0800870  18.6503270
  79.7161500  57.3805000  17.7558120  81.4135680  57.1449100  17.5400150
  82.0276090  57.4628390  16.8781230  81.9585240  56.6597690  18.1596010
  87.8310860  73.0440730  14.9461990  87.3369140  73.4409600  14.2289120
  87.2224150  72.4189940  15.3399270  71.9356940  55.8243360  17.6539210
  72.4839930  55.6431410  16.8905320  72.0012250  55.0337470  18.1895520
  72.7088700  72.4149010  15.6639410  72.1149020  72.2833710  16.4029450
  72.7012540  71.5787150  15.1981510  82.1543720  55.7081240  13.8669440
  81.2803560  56.0416350  13.6642370  82.0454470  55.2354420  14.6921310
  83.0615700  57.9152110  15.2511160  82.7329060  57.1003870  14.8712890
  84.0098000  57.8721920  15.1276850  85.5150310  73.6864150  12.2248730
  85.0553280  74.4379960  11.8506750  84.8862770  72.9670620  12.1663530
  72.3400930  69.7807390  14.6147450  71.6134990  69.1612680  14.5473400
  72.4010080  70.1748000  13.7445530  75.9446030  71.9952390  11.3996860
  76.4611050  71.3839750  10.8745120  76.5943410  72.4981170  11.8907870
  78.6841530  72.8860880  12.2265840  78.9719340  72.6315180  11.3498850
  79.1964750  72.3338240  12.8171410  79.9018540  56.6251080  12.8062350
  79.1190330  57.0996580  13.0859110  79.6081470  55.7205910  12.6975530
  84.4539610  57.3274180  10.8511440  84.8947700  57.2719280  10.0033040
  84.1847200  58.2432190  10.9221620  86.3178180  56.9589420   8.8620260
  86.2566580  56.0150640   8.7151280  87.0970210  57.0669510   9.4073720
  70.6230930  73.0981780   7.8244210  70.4552970  72.4652460   8.5226100
  69.7565440  73.3041180   7.4738400  71.2458950  56.9298560   5.3276070
  72.0038310  57.0427440   4.7540100  70.7836120  57.7667760   5.2819500
  77.7872760  59.0437830   8.3178380  76.9747270  58.6694720   7.9774260
  78.2914400  58.2882910   8.6199570  82.2897740  55.7080280   9.5561450
  82.8927110  56.2800490  10.0309970  81.5490730  56.2719720   9.3335350
  85.4332340  56.1101840   4.8301730  85.6282970  57.0085290   5.0969160
  84.6462210  55.8788920   5.3234680  72.2293630  71.7915010   5.2694350
  71.7041250  72.1723040   4.5656310  72.1538210  72.4165780   5.9904060
  73.6184100  57.4562610   3.8678040  74.1476860  56.6692410   3.7385990
  74.2512420  58.1353800   4.1013570  75.8121940  57.1937750   6.9223430
  75.1824680  56.4925060   7.0893560  75.2727080  57.9541880   6.7056590
  78.7513890  73.8076980  19.5934040  79.6781200  73.5721250  19.6370000
  78.7364320  74.6348980  19.1120070  86.9858950  73.3502550   6.5908290
  87.1611140  72.6640290   5.9469210  86.2880520  73.8749600   6.1984960
  75.9377500  56.4721730  19.3575920  75.6561770  56.9755330  18.5936740
  76.3197200  55.6743480  18.9918050  74.8286600  73.7397390   4.1443600
  75.5605420  73.4556670   3.5967490  75.0880270  73.5010670   5.0342980
  73.9901390  69.8562120   4.1489930  73.3610270  70.3247220   4.6975760
  74.1049220  69.0111340   4.5836120  82.5392960  55.8875310  19.9356390
  82.4258410  56.2069920  20.8307910  83.3562700  56.2887820  19.6393670
  85.3191450  73.0346840  19.4175080  86.1116770  72.5396070  19.2101040
  85.6124600  73.7136980  20.0250690  81.4451110  45.1324290  65.3965090
  81.3645160  44.2178900  65.1256800  81.0315530  45.6291360  64.6904800
  79.5769150  46.9103310  67.2774360  78.8011250  46.4303750  67.5672930
  80.2282080  46.2308960  67.1030520  73.5934980  47.2223120  68.1550120
  72.7619860  46.9671830  68.5546630  74.2015960  47.2933890  68.8908040
  83.5976580  51.3163500  66.0573490  83.1358110  50.5450740  66.3860660
  84.4102130  51.3429570  66.5625940  73.5736240  51.2563210  68.3508140
  73.8764280  50.3660950  68.1718360  74.3179830  51.8133430  68.1230390
  72.0026930  42.1825010  61.9392510  71.1143630  42.5240980  61.8372390
  72.2868120  41.9825330  61.0473340  69.9659940  44.7830660  67.8232210
  70.5376050  44.0152860  67.8235850  69.9661480  45.0819420  66.9138820
  79.8239890  53.6021510  65.6777480  79.2051330  54.0579010  65.1071920
  80.6791670  53.7572970  65.2767180  79.0178140  49.5860500  67.2844520
  78.9486420  48.6450440  67.1233650  79.7798000  49.6761910  67.8567090
  71.2084810  40.1915020  69.6101140  71.0287650  39.2940770  69.8903900
  70.8064890  40.7386890  70.2848090  80.0483310  42.3930880  67.5113450
  80.4248130  41.5202760  67.3987120  79.9502820  42.7289580  66.6203890
  74.1788320  40.7656510  62.9730890  74.2855070  41.6660240  63.2799650
  73.2680680  40.7174480  62.6825540  83.8307430  39.8881320  64.4441790
  84.6517050  39.3977890  64.4867270  83.8641510  40.4778980  65.1973630
  71.8271480  42.6875520  68.2183480  72.5081590  42.9513890  68.8370880
  71.5119530  41.8476390  68.5521490  76.0196050  43.7342880  67.3056070
  76.5274270  44.2323850  67.9461090  76.5509290  42.9578080  67.1295430
  88.1206980  41.9048070  71.0085420  87.4159150  42.2929780  70.4900530
  88.3864900  42.5998360  71.6106350  74.3032150  38.3741440  71.5719490
  74.3050590  38.8913830  70.7665390  73.4736460  37.8971620  71.5489420
  80.6903240  48.4860750  63.0709390  80.0720510  48.9510200  62.5072110
  81.2026490  49.1788230  63.4878900  75.5535000  48.0136620  69.7492990
  75.2204380  48.6405540  70.3914060  75.7301680  48.5398500  68.9694660
  84.0668910  41.8281700  67.2169330  83.3624480  42.1166590  67.7972440
  84.4281070  42.6381810  66.8568890  73.9847480  40.0851400  69.5789940
  74.3264290  40.9293450  69.2843810  73.0463290  40.2335140  69.6955280
  74.7654100  49.9817420  71.5642170  75.3828100  50.6568500  71.2826620
  73.9047220  50.3905400  71.4729670  85.6831690  51.4456830  69.4796810
  84.9995210  52.1155940  69.4713480  86.2225980  51.6437480  68.7141670
  87.1355830  41.2736490  67.6078540  86.1880740  41.3075470  67.7393970
  87.4605820  42.0875440  67.9927900  77.6675370  37.5733670  65.9034530
  77.9750350  37.0180560  65.1870030  76.7376070  37.7078130  65.7207520
  83.2190430  53.2900960  68.1941990  83.2317590  52.8863250  67.3264250
  82.6665650  54.0648250  68.0903420  84.5135850  50.0117180  63.2832160
  84.4032180  49.0691510  63.4081580  84.5104100  50.3732820  64.1694920
  82.6175870  48.1930800  69.5224600  83.0344660  47.9790910  68.6878060
  83.3415690  48.4503590  70.0933220  80.0556130  45.6382500  62.6394650
  79.1285410  45.5719880  62.8683120  80.2080950  46.5762630  62.5249890
  80.0425210  41.9099500  59.6361810  79.1028880  42.0713460  59.7214270
  80.3608470  42.6285180  59.0897800  86.5637970  46.5918020  69.6140840
  85.7356600  46.6611110  69.1390970  87.1588450  47.1772330  69.1456670
  84.0853420  47.2002800  63.1429900  83.4665840  46.8622350  62.4956200
  84.0677870  46.5562560  63.8509090  83.5279980  43.3787340  70.5595710
  83.1151160  44.2041050  70.8135700  82.7955930  42.7932380  70.3672070
  75.6612770  46.1647240  65.4214380  75.2569770  45.4524490  64.9260280
  75.7475890  45.8200480  66.3102420  76.1294470  49.8514800  67.5853590
  75.8322760  49.2460270  66.9061370  77.0794290  49.8892110  67.4742950
  74.3741390  42.9390450  69.2013420  74.9255980  43.0485790  68.4266670
  74.8884900  43.3128050  69.9168650  84.2180080  53.4246670  71.2476690
  83.7410640  54.2318860  71.0549300  83.5341870  52.7725000  71.4002900
  75.2212900  49.5896490  74.2361390  74.3241430  49.8136460  74.4834790
  75.2465770  49.7131430  73.2872790  82.2618120  46.4389610  60.1502650
  82.7011400  45.6012040  60.0040470  82.9746540  47.0719010  60.2366790
  74.0484120  46.4609810  72.8118760  73.9091890  47.3332610  73.1806160
  73.1665480  46.1182620  72.6666700  80.3713500  51.3785680  64.1183890
  80.8109410  52.1210010  63.7039280  80.3100390  51.6212250  65.0422850
  75.8464470  52.4031510  75.0203910  75.8179900  52.8074460  74.1532340
  75.6829440  51.4741870  74.8575510  85.8435260  37.6932420  58.4643690
  85.5307920  37.7859250  59.3642760  86.6047730  38.2713450  58.4141120
  72.3617400  45.0592220  62.9221030  72.2415000  45.7854310  62.3102300
  72.0518290  44.2895130  62.4448940  70.0002770  48.2307360  68.7289670
  70.0783190  48.3656130  67.7845390  70.6144450  47.5223250  68.9217790
  71.2450400  49.9307550  65.1395850  70.8378480  50.0722140  64.2849450
  72.1363410  49.6467710  64.9367060  87.2012540  50.3771460  73.4768090
  87.3275600  50.1383340  72.5585270  87.2433920  49.5456000  73.9490170
  81.0629280  54.0799460  72.0462900  81.5773950  53.9907470  72.8485330
  80.2198360  54.4259160  72.3390810  75.5172060  54.1453330  63.2518520
  75.3414540  53.2288870  63.0386320  74.6627800  54.5040620  63.4916320
  82.3059740  53.5005070  64.1093390  82.7616690  52.7194450  64.4232010
  82.6452260  54.2111890  64.6534570  87.0536550  42.4303920  74.4417830
  86.4380820  42.9383590  73.9133290  86.7332970  41.5302250  74.3843770
  70.0562290  49.2721530  71.2684130  70.2193330  48.8026890  70.4503500
  70.5214740  48.7645090  71.9332970  74.8281060  38.4027290  66.3044700
  74.3849210  39.1836830  65.9729220  75.3866050  38.7257180  67.0115640
  79.1150870  41.2695810  71.9080020  78.6530240  41.4778830  72.7199960
  78.7128980  40.4555160  71.6050690  84.1155380  42.4904760  73.0376680
  83.2648970  42.1910510  73.3585750  83.9557170  42.7346770  72.1260500
  81.2105090  43.9906510  75.1375470  81.5358500  43.1570260  74.7977700
  81.9985420  44.5135030  75.2853800  77.9439880  38.0237990  61.1850530
  77.3194060  38.0197860  61.9103840  77.8570000  37.1568950  60.7886500
  76.8656960  38.9474620  68.1634300  77.1629290  39.8537450  68.0826320
  77.4142520  38.4593400  67.5493870  74.6195280  43.5260860  64.0325950
  74.3936200  43.3098030  64.9372570  73.8387810  43.9589320  63.6871920
  81.8493040  43.5324230  62.6316600  81.2501930  44.2560030  62.4480220
  82.3972650  43.4701010  61.8493050  77.0594490  44.4246440  74.6986220
  76.9638090  43.4841170  74.5486620  77.9026470  44.6461510  74.3034290
  80.4557910  42.1687770  64.6619880  80.8487480  42.4859970  63.8488570
  80.8174760  41.2899650  64.7764400  72.1905030  40.8360110  72.8520000
  71.7968420  41.6835320  73.0592780  71.5023430  40.1986480  73.0428640
  69.4922080  38.7588570  66.8850080  69.2035130  39.3291430  67.5975060
  70.2367840  38.2793020  67.2481310  69.6792310  42.7008690  58.0952800
  69.5966980  43.6439450  58.2367790  69.3275370  42.5583600  57.2165150
  81.0413050  44.7593520  68.7570660  80.3094170  45.2680330  69.1060760
  80.6437390  43.9423500  68.4559440  77.4790440  41.4347720  67.1623150
  77.4826500  40.9937670  66.3127690  78.3741560  41.7565050  67.2694970
  73.3292820  41.3174210  66.1217360  72.9892870  41.7949440  66.8784410
  72.5670140  40.8639330  65.7618460  77.5410590  42.4359800  60.1529910
  77.6623410  42.3946280  61.1015730  77.1559100  43.2983950  59.9976640
  81.5038960  40.2127200  68.1693600  81.5211700  40.6635850  69.0135450
  81.2554540  39.3132840  68.3827040  76.5532090  44.7460940  59.5513210
  75.9848990  44.2979190  58.9249120  77.2621090  45.1053720  59.0178360
  84.9309710  37.6259380  74.0079980  85.2555480  36.8949040  74.5337960
  84.9666220  37.3073020  73.1060970  71.6301270  48.6472960  73.4279940
  71.2456060  48.0066630  74.0262900  71.9413460  49.3509080  73.9974670
  77.7798410  45.4949500  68.9088560  78.1468540  45.0208070  69.6549900
  77.5903470  46.3691070  69.2496900  70.6438900  40.2393190  65.0382030
  70.3585820  39.8748860  65.8760650  70.5817760  39.5073650  64.4245170
  75.5697780  44.5358140  71.2272770  75.2654850  45.4150120  71.4523130
  76.5244240  44.5957930  71.2630210  74.0979570  48.7419130  61.8239620
  73.3241830  48.2016750  61.6638340  74.8274200  48.2225740  61.4857380
  84.8567550  47.7384490  67.6166010  85.5766670  48.2339780  67.2262120
  84.6549370  47.0602380  66.9719880  80.3177490  39.1322450  61.7595400
  79.5042100  38.6335620  61.6840710  80.1239440  39.9720700  61.3431750
  80.2386350  47.8093550  73.5035010  80.1723660  46.8889220  73.2492600
  79.6091490  47.9068990  74.2179650  83.0325880  43.5042100  60.0557560
  83.9205500  43.8159330  59.8808900  83.0030970  42.6314350  59.6638140
  74.1416970  48.4099510  65.4618430  74.6595640  47.6067770  65.4075320
  73.6900990  48.3478650  66.3035260  79.0286470  49.6765790  60.7345730
  79.3702170  50.4208020  60.2389050  78.1999180  49.9896910  61.0970560
  71.6261510  45.3760880  72.3744130  71.2676450  46.0414730  72.9617470
  71.3316070  44.5444430  72.7456750  74.8274630  45.8345120  75.2583680
  74.5274770  45.9802300  74.3611500  75.5985870  45.2750410  75.1657070
  80.1703080  50.6314120  73.2538810  80.1847620  49.6995080  73.0357720
  79.4628180  50.7173880  73.8928580  85.3040150  44.8153940  59.5237420
  85.2203870  45.2468160  58.6733860  86.0234340  45.2752290  59.9564240
  86.3814290  47.2721460  72.6007390  85.6562480  47.8650240  72.4036780
  86.9089750  47.2645000  71.8020760  86.3327400  51.6696200  62.2519550
  85.6903560  51.0151820  62.5263270  85.9458060  52.0751290  61.4760220
  81.9113880  48.9981630  66.0991240  82.2637700  48.4009760  65.4392610
  81.0276210  48.6725860  66.2699490  77.9977160  49.7579320  63.5061650
  78.6848290  50.3048530  63.8869240  77.2109580  50.3020050  63.5411260
  70.1369560  45.3752140  58.9978730  71.0064410  45.6576940  59.2814650
  69.6459880  46.1888010  58.8827540  77.3004370  46.7625350  63.1187010
  77.7567150  47.5730600  63.3447200  76.9492580  46.4448490  63.9505500
  79.6036980  52.2731690  70.3479310  80.2479200  52.4791070  71.0252730
  79.9666420  51.5120090  69.8950160  73.2016150  37.1063000  63.5909530
  73.0730780  37.0980900  64.5394450  72.3778170  37.4446090  63.2400540
  80.8769060  50.2764040  69.0656760  81.5191290  49.5757200  69.1788930
  81.4018410  51.0562480  68.8853650  84.7224780  50.5612660  58.7895900
  84.4962360  49.8443100  59.3820540  84.3320980  50.3125100  57.9517650
  82.6506680  51.0758940  72.2692820  82.9862920  51.6625630  72.9470740
  81.7307020  50.9451650  72.4990610  70.2010080  38.8654120  73.0516230
  69.4868600  39.0651040  73.6568840  70.6205120  38.0893690  73.4231030
  84.3041030  48.4784600  60.4510060  84.0162730  48.9397290  61.2387940
  85.0993200  48.0182370  60.7194280  70.4882670  52.8534380  74.0382760
  70.5973790  51.9129120  73.8978150  69.8363230  53.1189130  73.3896490
  78.4795260  51.1250270  75.4380880  78.1592130  50.4059510  75.9826570
  77.8053620  51.8005340  75.5116940  72.1216070  47.1925610  61.1260790
  71.5144020  47.9324510  61.1356090  72.5965420  47.2824970  60.2998990
  81.6948860  41.3576430  70.8017680  82.0629680  40.5371640  71.1297250
  80.8347060  41.4178320  71.2173330  85.0610890  40.3133370  61.6105240
  84.4324050  40.4179040  60.8963470  84.5662810  40.5330150  62.3999120
  77.0294920  42.5919320  63.0263120  76.3211070  43.0605660  63.4676730
  77.3139400  41.9341330  63.6608310  78.6550850  44.0116020  71.0255650
  79.1536100  44.4861840  71.6907500  78.7973800  43.0879540  71.2325680
  81.0610350  39.3169980  64.4658910  80.9378130  39.3356110  63.5168420
  82.0094910  39.3648920  64.5857310  78.1487140  54.5525280  63.7386890
  78.4028640  54.5146670  62.8166260  77.1999620  54.4258610  63.7315140
  75.2329940  40.9004400  60.4013830  76.0820470  41.3374550  60.3354020
  74.8661210  41.2124660  61.2285890  85.8617710  40.2283980  71.8684040
  85.3591310  40.9689380  72.2077850  86.6774370  40.6167980  71.5520830
  84.1539720  45.4717160  65.3145400  83.2129860  45.4867390  65.4893090
  84.4683790  44.6853120  65.7605700  74.1321360  47.1536760  58.8749360
  74.8984630  47.0418120  59.4374790  74.2096050  46.4574730  58.2226130
  72.8268120  44.5861830  59.5582250  72.9071710  43.6389340  59.6699650
  73.7187870  44.9168710  59.6642910  86.1565300  52.6426010  66.9899660
  86.2812720  53.4657180  67.4623470  87.0230860  52.4316740  66.6423810
  73.6282830  54.7357220  66.6616790  74.3645310  54.1872680  66.9325360
  74.0123750  55.6013230  66.5222780  82.9006110  53.7563450  74.4087190
  83.8527860  53.6721470  74.3587430  82.7534330  54.4205160  75.0820980
  85.7915310  53.1357660  59.9079100  85.5056820  52.7222800  59.0933280
  85.5934860  54.0645370  59.7879620  70.3538920  46.4076750  74.7938420
  70.8577940  45.8284030  75.3654650  69.6146340  46.6916980  75.3314790
  77.4076860  47.8147740  74.3273940  76.6422530  48.3832740  74.2428610
  77.5892820  47.5223950  73.4342170  80.4965270  48.1910970  58.9526700
  79.9475370  48.6380270  59.5969440  81.1184530  47.6860220  59.4764370
  84.5500210  49.5453070  74.8848960  85.2909680  49.8828830  74.3816420
  83.7872890  49.7145130  74.3318730  76.1640390  47.1501890  60.8492000
  76.5856810  46.9841760  61.6923390  76.2891230  46.3402120  60.3547140
  74.3267810  43.1298440  73.6562980  73.7964270  42.6389390  73.0286320
  74.9955880  43.5582640  73.1220910  78.6768030  46.1739500  58.0969100
  79.1973690  45.4588520  57.7310250  79.3236430  46.8125370  58.3969610
  83.2245870  47.5967900  73.4204170  83.6386890  47.7512980  74.2694590
  82.2896870  47.7223120  73.5829950  83.6968040  44.9364060  75.4243320
  84.2788810  44.1816380  75.3363800  83.8729810  45.4671500  74.6474800
  74.8140110  40.0960810  73.7360270  74.7196980  39.4781560  73.0111140
  74.2337500  40.8227100  73.5090180  77.5801550  38.6534050  70.7687660
  77.1318850  38.6758310  69.9233210  76.9466750  38.2553070  71.3657960
  77.9861100  47.5488380  71.3900100  78.4049210  48.3921110  71.2176340
  77.0669730  47.6860420  71.1606880  80.3225000  45.2804560  72.7737940
  80.4421210  44.6845700  73.5132780  81.1819000  45.3174250  72.3539240
  82.6612900  45.8341750  71.3500450  82.1348120  46.3584370  70.7465590
  83.0044240  46.4669140  71.9810180  75.0599290  43.2235120  57.7950160
  74.8588350  42.3602480  58.1563500  74.8891340  43.1368480  56.8571760
  75.8368520  53.8541390  72.5057830  75.2989610  54.5787450  72.1866530
  76.0902480  53.3771730  71.7155170  77.0893770  41.8225910  74.0313760
  77.6793460  41.5141760  74.7191580  76.2714010  41.3505660  74.1873660
  81.9087200  41.4391720  74.2646780  81.2202720  40.7773260  74.1996770
  82.6293220  40.9929990  74.7095240  82.5387600  38.0343350  60.3237040
  82.8189890  37.1911250  60.6796460  81.7653330  38.2666460  60.8375790
  73.8582090  40.3235740  57.7828040  74.1607990  40.3303170  56.8747190
  74.5976680  39.9733600  58.2795700  78.6930730  55.0892600  72.7644480
  78.6189430  55.9927740  73.0716850  77.7909570  54.7704500  72.7366550
  77.0767020  39.2670360  58.7684240  76.7289020  38.5894350  58.1886690
  77.2779790  38.8059870  59.5827630  70.0958020  52.4167190  66.0678100
  70.4261030  51.5488250  65.8356740  70.5249020  52.6225710  66.8983060
  74.6919940  50.7476200  63.7280070  74.3915480  50.6241170  64.6283980
  74.5857430  49.8884790  63.3195800  70.5848230  53.2837780  68.8059730
  70.1479220  53.4638580  69.6383880  71.1525910  54.0412400  68.6641450
  86.2210410  52.7854780  73.0937040  85.6212400  52.8447340  72.3500960
  86.3504310  51.8459760  73.2233890  87.4611860  50.5272600  58.4306750
  86.6304820  50.5949250  58.9013980  87.6383690  51.4176720  58.1273610
  86.9168320  47.2720080  60.9340950  87.6787230  47.8416730  61.0400640
  86.9322690  46.7047280  61.7049260  70.4172660  45.7958010  65.1648610
  69.7621500  45.5269650  64.5208310  71.2550610  45.6862490  64.7150590
  87.9228290  48.1270180  65.7782880  88.2937120  47.3437500  65.3718850
  88.5630220  48.8159280  65.6000180  84.9062050  49.5106760  71.1913200
  84.0921890  49.9403920  71.4538990  85.3136250  50.1225170  70.5782250
  86.9687490  47.5654450  58.0913470  87.2436330  48.4733330  57.9632690
  86.7798230  47.5016980  59.0275460  83.3663100  40.5899300  59.3867100
  83.7847980  40.4030280  58.5463760  83.0599160  39.7378350  59.6970030
  86.8652830  45.5023440  63.0842900  86.4896430  44.7351370  62.6524190
  86.1355950  45.8846140  63.5717830  71.4548590  46.1810580  69.7051950
  71.8221630  46.0937980  70.5847970  70.8859410  45.4177130  69.6058810
  86.2552450  44.6494960  72.7182420  86.0238540  44.4207710  71.8180370
  86.5157000  45.5694510  72.6727310  71.0064590  43.0919670  73.6110370
  70.1120640  43.0586430  73.9504080  71.5462140  43.2906460  74.3761620
  84.6940520  39.8751390  75.4962120  85.5710700  39.8834790  75.8796120
  84.7061360  39.1382230  74.8854470  69.6310740  43.0056940  61.1073940
  68.7274820  43.2687140  60.9325600  70.1151360  43.2768110  60.3273900
  86.1403790  43.7280930  66.3850140  86.6641270  43.2343580  65.7540310
  86.7263210  43.8631290  67.1297710  86.3193510  43.8120800  69.9069690
  85.3696220  43.7784340  70.0214680  86.5006520  44.7220910  69.6719460
  72.1737950  42.0622480  59.0168320  72.8829650  41.6405700  58.5315600
  71.4577890  42.1297710  58.3851670  71.8212110  38.1161810  58.0570970
  72.5440240  38.6570750  58.3752190  72.0936630  37.8425230  57.1812510
  85.6303760  42.9854280  62.3242550  86.1262880  42.7525150  63.1091430
  85.4319830  42.1466120  61.9080190  71.5104300  37.3668000  67.9593590
  72.1580490  36.8165380  67.5188750  71.9306140  37.6211150  68.7809400
  87.0590920  41.6215230  64.8580230  86.9490200  41.4671270  65.7962500
  87.8198510  41.0936170  64.6155640  85.4056640  37.5609360  71.3163230
  86.0428860  38.1743500  71.6822420  85.5531530  37.5970020  70.3712460
  87.9481190  39.4523150  58.0986370  88.8730500  39.3204330  57.8904660
  87.9256980  39.5315970  59.0522820  88.0219680  40.2233810  60.7243080
  87.2271180  40.1578930  61.2535990  88.2262960  41.1584450  60.7128430
  84.9638100  54.2625360  64.7181470  85.5597170  53.9409930  64.0415890
  85.2216250  53.7897180  65.5094740  71.2636300  37.5223670  70.7018910
  70.9151120  37.9787490  71.4677090  70.9324000  36.6280800  70.7841340
  72.8700670  50.6943270  74.8672100  72.8270300  50.3236180  75.7486560
  73.0011680  51.6320840  75.0073920  76.5706700  52.2502860  70.4681820
  76.3298060  52.5177420  69.5812340  77.5109340  52.4208590  70.5232680
  78.7761120  38.7135550  74.2238330  78.7150010  39.3057380  74.9733740
  79.7161500  38.6061510  74.0788590  81.4135680  38.3705610  73.8630620
  82.0276090  38.6884900  73.2011700  81.9585240  37.8854200  74.4826480
  87.8310860  54.2697240  71.2692460  87.3369140  54.6666110  70.5519590
  87.2224150  53.6446450  71.6629740  71.9356940  37.0499870  73.9769680
  72.4839930  36.8687920  73.2135790  72.0012250  36.2593980  74.5125990
  72.7088700  53.6405520  71.9869880  72.1149020  53.5090220  72.7259920
  72.7012540  52.8043660  71.5211980  82.1543720  36.9337750  70.1899910
  81.2803560  37.2672860  69.9872840  82.0454470  36.4610930  71.0151780
  83.0615700  39.1408620  71.5741630  82.7329060  38.3260380  71.1943360
  84.0098000  39.0978430  71.4507320  85.5150310  54.9120660  68.5479200
  85.0553280  55.6636470  68.1737220  84.8862770  54.1927130  68.4894000
  72.3400930  51.0063900  70.9377920  71.6134990  50.3869190  70.8703870
  72.4010080  51.4004510  70.0676000  75.9446030  53.2208900  67.7227330
  76.4611050  52.6096260  67.1975590  76.5943410  53.7237680  68.2138340
  78.6841530  54.1117390  68.5496310  78.9719340  53.8571690  67.6729320
  79.1964750  53.5594750  69.1401880  79.9018540  37.8507590  69.1292820
  79.1190330  38.3253090  69.4089580  79.6081470  36.9462420  69.0206000
  84.4539610  38.5530690  67.1741910  84.8947700  38.4975790  66.3263510
  84.1847200  39.4688700  67.2452090  86.3178180  38.1845930  65.1850730
  86.2566580  37.2407150  65.0381750  87.0970210  38.2926020  65.7304190
  70.6230930  54.3238290  64.1474680  70.4552970  53.6908970  64.8456570
  69.7565440  54.5297690  63.7968870  71.2458950  38.1555070  61.6506540
  72.0038310  38.2683950  61.0770570  70.7836120  38.9924270  61.6049970
  77.7872760  40.2694340  64.6408850  76.9747270  39.8951230  64.3004730
  78.2914400  39.5139420  64.9430040  82.2897740  36.9336790  65.8791920
  82.8927110  37.5057000  66.3540440  81.5490730  37.4976230  65.6565820
  85.4332340  37.3358350  61.1532200  85.6282970  38.2341800  61.4199630
  84.6462210  37.1045430  61.6465150  72.2293630  53.0171520  61.5924820
  71.7041250  53.3979550  60.8886780  72.1538210  53.6422290  62.3134530
  73.6184100  38.6819120  60.1908510  74.1476860  37.8948920  60.0616460
  74.2512420  39.3610310  60.4244040  75.8121940  38.4194260  63.2453900
  75.1824680  37.7181570  63.4124030  75.2727080  39.1798390  63.0287060
  78.7513890  55.0333490  75.9164510  79.6781200  54.7977760  75.9600470
  78.7364320  55.8605490  75.4350540  86.9858950  54.5759060  62.9138760
  87.1611140  53.8896800  62.2699680  86.2880520  55.1006110  62.5215430
  75.9377500  37.6978240  75.6806390  75.6561770  38.2011840  74.9167210
  76.3197200  36.8999990  75.3148520  73.9901390  51.0818630  60.4720400
  73.3610270  51.5503730  61.0206230  74.1049220  50.2367850  60.9066590
  87.7979290  53.1858610  57.5424590  88.2739010  53.6641500  58.2213670
  88.4186450  53.1176100  56.8170090  87.0536550  42.4303920  55.6674340
  86.4380820  42.9383590  55.1389800  86.7332970  41.5302250  55.6100280
  81.2105090  43.9906510  56.3631980  81.5358500  43.1570260  56.0234210
  81.9985420  44.5135030  56.5110310  72.1905030  40.8360110  54.0776510
  71.7968420  41.6835320  54.2849290  71.5023430  40.1986480  54.2685150
  78.7650080  40.9195080  57.1473250  78.0748400  40.7267280  57.7819340
  79.5082380  41.2029720  57.6797550  84.9309710  37.6259380  55.2336490
  85.2555480  36.8949040  55.7594470  84.9666220  37.3073020  54.3317480
  70.2010080  38.8654120  54.2772740  69.4868600  39.0651040  54.8825350
  70.6205120  38.0893690  54.6487540  81.4705740  50.0283160  57.0234290
  80.8643900  50.0514760  56.2830040  81.1659850  49.2966200  57.5601540
  70.3538920  46.4076750  56.0194930  70.8577940  45.8284030  56.5911160
  69.6146340  46.6916980  56.5571300  83.6968040  44.9364060  56.6499830
  84.2788810  44.1816380  56.5620310  83.8729810  45.4671500  55.8731310
  74.8140110  40.0960810  54.9616780  74.7196980  39.4781560  54.2367650
  74.2337500  40.8227100  54.7346690  80.3225000  45.2804560  53.9994450
  80.4421210  44.6845700  54.7389290  81.1819000  45.3174250  53.5795750
  77.0893770  41.8225910  55.2570270  77.6793460  41.5141760  55.9448090
  76.2714010  41.3505660  55.4130170  81.9087200  41.4391720  55.4903290
  81.2202720  40.7773260  55.4253280  82.6293220  40.9929990  55.9351750
  71.0064590  43.0919670  54.8366880  70.1120640  43.0586430  55.1760590
  71.5462140  43.2906460  55.6018130  84.6940520  39.8751390  56.7218630
  85.5710700  39.8834790  57.1052630  84.7061360  39.1382230  56.1110980
  71.2636300  37.5223670  51.9275420  70.9151120  37.9787490  52.6933600
  70.9324000  36.6280800  52.0097850  81.4135680  38.3705610  55.0887130
  82.0276090  38.6884900  54.4268210  81.9585240  37.8854200  55.7082990
  71.9356940  37.0499870  55.2026190  72.4839930  36.8687920  54.4392300
  72.0012250  36.2593980  55.7382500  75.9377500  37.6978240  56.9062900
  75.6561770  38.2011840  56.1423720  76.3197200  36.8999990  56.5405030
  82.5392960  37.1131820  57.4843370  82.4258410  37.4326430  58.3794890
  83.3562700  37.5144330  57.1880650  81.4451110  45.1324290  27.8478110
  81.3645160  44.2178900  27.5769820  81.0315530  45.6291360  27.1417820
  79.5769150  46.9103310  29.7287380  78.8011250  46.4303750  30.0185950
  80.2282080  46.2308960  29.5543540  76.0196050  43.7342880  29.7569090
  76.5274270  44.2323850  30.3974110  76.5509290  42.9578080  29.5808450
  80.6903240  48.4860750  25.5222410  80.0720510  48.9510200  24.9585130
  81.2026490  49.1788230  25.9391920  70.0586440  49.1717280  22.8962040
  69.6814420  49.6604380  22.1646940  70.3159510  49.8442560  23.5268570
  84.0853420  47.2002800  25.5942920  83.4665840  46.8622350  24.9469220
  84.0677870  46.5562560  26.3022110  80.3713500  51.3785680  26.5696910
  80.8109410  52.1210010  26.1552300  80.3100390  51.6212250  27.4935870
  72.3617400  45.0592220  25.3734050  72.2415000  45.7854310  24.7615320
  72.0518290  44.2895130  24.8961960  71.2450400  49.9307550  27.5908870
  70.8378480  50.0722140  26.7362470  72.1363410  49.6467710  27.3880080
  75.5172060  54.1453330  25.7031540  75.3414540  53.2288870  25.4899340
  74.6627800  54.5040620  25.9429340  82.7409810  51.8742360  22.4857920
  82.0474970  51.8719650  21.8260200  83.4832670  51.4501680  22.0552090
  69.6792310  42.7008690  20.5465820  69.5966980  43.6439450  20.6880810
  69.3275370  42.5583600  19.6678170  73.3292820  41.3174210  28.5730380
  72.9892870  41.7949440  29.3297430  72.5670140  40.8639330  28.2131480
  74.0979570  48.7419130  24.2752640  73.3241830  48.2016750  24.1151360
  74.8274200  48.2225740  23.9370400  74.1416970  48.4099510  27.9131450
  74.6595640  47.6067770  27.8588340  73.6900990  48.3478650  28.7548280
  79.0286470  49.6765790  23.1858750  79.3702170  50.4208020  22.6902070
  78.1999180  49.9896910  23.5483580  85.3040150  44.8153940  21.9750440
  85.2203870  45.2468160  21.1246880  86.0234340  45.2752290  22.4077260
  81.9113880  48.9981630  28.5504260  82.2637700  48.4009760  27.8905630
  81.0276210  48.6725860  28.7212510  77.9977160  49.7579320  25.9574670
  78.6848290  50.3048530  26.3382260  77.2109580  50.3020050  25.9924280
  70.1369560  45.3752140  21.4491750  71.0064410  45.6576940  21.7327670
  69.6459880  46.1888010  21.3340560  84.7224780  50.5612660  21.2408920
  84.4962360  49.8443100  21.8333560  84.3320980  50.3125100  20.4030670
  70.5040810  54.5879520  22.0153380  70.8638450  55.1868860  21.3610650
  70.3633150  55.1339410  22.7888410  84.3041030  48.4784600  22.9023080
  84.0162730  48.9397290  23.6900960  85.0993200  48.0182370  23.1707300
  76.5209430  51.9710720  22.8327050  76.5119530  52.7040410  22.2171560
  75.6007790  51.7242300  22.9254010  72.1216070  47.1925610  23.5773810
  71.5144020  47.9324510  23.5869110  72.5965420  47.2824970  22.7512010
  79.5069030  52.0338960  21.4952240  79.6081010  51.8302950  20.5654220
  78.6070770  51.7797240  21.7000020  78.1487140  54.5525280  26.1899910
  78.4028640  54.5146670  25.2679280  77.1999620  54.4258610  26.1828160
  84.1539720  45.4717160  27.7658420  83.2129860  45.4867390  27.9406110
  84.4683790  44.6853120  28.2118720  74.1321360  47.1536760  21.3262380
  74.8984630  47.0418120  21.8887810  74.2096050  46.4574730  20.6739150
  70.5128310  50.8030790  24.9871320  69.5868090  51.0451930  24.9776730
  70.9784740  51.6305050  24.8656070  76.7385140  53.9087530  20.9355380
  77.5313750  54.1976360  20.4837170  76.2189490  53.4779700  20.2567860
  79.2416060  54.2551110  22.8383860  80.1366850  54.5936080  22.8602620
  79.2733690  53.5330520  22.2108140  72.8812220  49.6278160  21.0670860
  73.3187090  50.1707830  21.7228440  73.3659950  48.8025110  21.0767200
  70.0958020  52.4167190  28.5191120  70.4261030  51.5488250  28.2869760
  70.5249020  52.6225710  29.3496080  74.6919940  50.7476200  26.1793090
  74.3915480  50.6241170  27.0797000  74.5857430  49.8884790  25.7708820
  87.4611860  50.5272600  20.8819770  86.6304820  50.5949250  21.3527000
  87.6383690  51.4176720  20.5786630  70.4172660  45.7958010  27.6161630
  69.7621500  45.5269650  26.9721330  71.2550610  45.6862490  27.1663610
  86.9687490  47.5654450  20.5426490  87.2436330  48.4733330  20.4145710
  86.7798230  47.5016980  21.4788480  69.6310740  43.0056940  23.5586960
  68.7274820  43.2687140  23.3838620  70.1151360  43.2768110  22.7786920
  70.6230930  54.3238290  26.5987700  70.4552970  53.6908970  27.2969590
  69.7565440  54.5297690  26.2481890  72.2293630  53.0171520  24.0437840
  71.7041250  53.3979550  23.3399800  72.1538210  53.6422290  24.7647550
  74.8286600  54.9653900  22.9187090  75.5605420  54.6813180  22.3710980
  75.0880270  54.7267180  23.8086470  73.9901390  51.0818630  22.9233420
  73.3610270  51.5503730  23.4719250  74.1049220  50.2367850  23.3579610
  81.4451110  45.1324290   9.0734620  81.3645160  44.2178900   8.8026330
  81.0315530  45.6291360   8.3674330  79.5769150  46.9103310  10.9543890
  78.8011250  46.4303750  11.2442460  80.2282080  46.2308960  10.7800050
  73.5934980  47.2223120  11.8319650  72.7619860  46.9671830  12.2316160
  74.2015960  47.2933890  12.5677570  83.5976580  51.3163500   9.7343020
  83.1358110  50.5450740  10.0630190  84.4102130  51.3429570  10.2395470
  73.5736240  51.2563210  12.0277670  73.8764280  50.3660950  11.8487890
  74.3179830  51.8133430  11.7999920  72.0026930  42.1825010   5.6162040
  71.1143630  42.5240980   5.5141920  72.2868120  41.9825330   4.7242870
  69.9659940  44.7830660  11.5001740  70.5376050  44.0152860  11.5005380
  69.9661480  45.0819420  10.5908350  79.8239890  53.6021510   9.3547010
  79.2051330  54.0579010   8.7841450  80.6791670  53.7572970   8.9536710
  79.0178140  49.5860500  10.9614050  78.9486420  48.6450440  10.8003180
  79.7798000  49.6761910  11.5336620  71.2084810  40.1915020  13.2870670
  71.0287650  39.2940770  13.5673430  70.8064890  40.7386890  13.9617620
  80.0483310  42.3930880  11.1882980  80.4248130  41.5202760  11.0756650
  79.9502820  42.7289580  10.2973420  74.1788320  40.7656510   6.6500420
  74.2855070  41.6660240   6.9569180  73.2680680  40.7174480   6.3595070
  83.8307430  39.8881320   8.1211320  84.6517050  39.3977890   8.1636800
  83.8641510  40.4778980   8.8743160  71.8271480  42.6875520  11.8953010
  72.5081590  42.9513890  12.5140410  71.5119530  41.8476390  12.2291020
  76.0196050  43.7342880  10.9825600  76.5274270  44.2323850  11.6230620
  76.5509290  42.9578080  10.8064960  88.1206980  41.9048070  14.6854950
  87.4159150  42.2929780  14.1670060  88.3864900  42.5998360  15.2875880
  74.3032150  38.3741440  15.2489020  74.3050590  38.8913830  14.4434920
  73.4736460  37.8971620  15.2258950  80.6903240  48.4860750   6.7478920
  80.0720510  48.9510200   6.1841640  81.2026490  49.1788230   7.1648430
  75.5535000  48.0136620  13.4262520  75.2204380  48.6405540  14.0683590
  75.7301680  48.5398500  12.6464190  84.0668910  41.8281700  10.8938860
  83.3624480  42.1166590  11.4741970  84.4281070  42.6381810  10.5338420
  73.9847480  40.0851400  13.2559470  74.3264290  40.9293450  12.9613340
  73.0463290  40.2335140  13.3724810  74.7654100  49.9817420  15.2411700
  75.3828100  50.6568500  14.9596150  73.9047220  50.3905400  15.1499200
  70.0586440  49.1717280   4.1218550  69.6814420  49.6604380   3.3903450
  70.3159510  49.8442560   4.7525080  85.6831690  51.4456830  13.1566340
  84.9995210  52.1155940  13.1483010  86.2225980  51.6437480  12.3911200
  87.1355830  41.2736490  11.2848070  86.1880740  41.3075470  11.4163500
  87.4605820  42.0875440  11.6697430  77.6675370  37.5733670   9.5804060
  77.9750350  37.0180560   8.8639560  76.7376070  37.7078130   9.3977050
  83.2190430  53.2900960  11.8711520  83.2317590  52.8863250  11.0033780
  82.6665650  54.0648250  11.7672950  84.5135850  50.0117180   6.9601690
  84.4032180  49.0691510   7.0851110  84.5104100  50.3732820   7.8464450
  82.6175870  48.1930800  13.1994130  83.0344660  47.9790910  12.3647590
  83.3415690  48.4503590  13.7702750  80.0556130  45.6382500   6.3164180
  79.1285410  45.5719880   6.5452650  80.2080950  46.5762630   6.2019420
  80.0425210  41.9099500   3.3131340  79.1028880  42.0713460   3.3983800
  80.3608470  42.6285180   2.7667330  86.5637970  46.5918020  13.2910370
  85.7356600  46.6611110  12.8160500  87.1588450  47.1772330  12.8226200
  84.0853420  47.2002800   6.8199430  83.4665840  46.8622350   6.1725730
  84.0677870  46.5562560   7.5278620  83.5279980  43.3787340  14.2365240
  83.1151160  44.2041050  14.4905230  82.7955930  42.7932380  14.0441600
  75.6612770  46.1647240   9.0983910  75.2569770  45.4524490   8.6029810
  75.7475890  45.8200480   9.9871950  76.1294470  49.8514800  11.2623120
  75.8322760  49.2460270  10.5830900  77.0794290  49.8892110  11.1512480
  74.3741390  42.9390450  12.8782950  74.9255980  43.0485790  12.1036200
  74.8884900  43.3128050  13.5938180  84.2180080  53.4246670  14.9246220
  83.7410640  54.2318860  14.7318830  83.5341870  52.7725000  15.0772430
  75.2212900  49.5896490  17.9130920  74.3241430  49.8136460  18.1604320
  75.2465770  49.7131430  16.9642320  82.2618120  46.4389610   3.8272180
  82.7011400  45.6012040   3.6810000  82.9746540  47.0719010   3.9136320
  74.0484120  46.4609810  16.4888290  73.9091890  47.3332610  16.8575690
  73.1665480  46.1182620  16.3436230  80.3713500  51.3785680   7.7953420
  80.8109410  52.1210010   7.3808810  80.3100390  51.6212250   8.7192380
  75.8464470  52.4031510  18.6973440  75.8179900  52.8074460  17.8301870
  75.6829440  51.4741870  18.5345040  85.8435260  37.6932420   2.1413220
  85.5307920  37.7859250   3.0412290  86.6047730  38.2713450   2.0910650
  72.3617400  45.0592220   6.5990560  72.2415000  45.7854310   5.9871830
  72.0518290  44.2895130   6.1218470  87.7979290  53.1858610  19.9937610
  88.2739010  53.6641500  20.6726690  88.4186450  53.1176100  19.2683110
  70.0002770  48.2307360  12.4059200  70.0783190  48.3656130  11.4614920
  70.6144450  47.5223250  12.5987320  71.2450400  49.9307550   8.8165380
  70.8378480  50.0722140   7.9618980  72.1363410  49.6467710   8.6136590
  87.2012540  50.3771460  17.1537620  87.3275600  50.1383340  16.2354800
  87.2433920  49.5456000  17.6259700  81.0629280  54.0799460  15.7232430
  81.5773950  53.9907470  16.5254860  80.2198360  54.4259160  16.0160340
  83.0383680  54.3654800   5.1516430  82.8784820  54.0757740   6.0498260
  82.8730390  53.5894930   4.6161660  75.5172060  54.1453330   6.9288050
  75.3414540  53.2288870   6.7155850  74.6627800  54.5040620   7.1685850
  82.7409810  51.8742360   3.7114430  82.0474970  51.8719650   3.0516710
  83.4832670  51.4501680   3.2808600  82.3059740  53.5005070   7.7862920
  82.7616690  52.7194450   8.1001540  82.6452260  54.2111890   8.3304100
  70.0562290  49.2721530  14.9453660  70.2193330  48.8026890  14.1273030
  70.5214740  48.7645090  15.6102500  74.8281060  38.4027290   9.9814230
  74.3849210  39.1836830   9.6498750  75.3866050  38.7257180  10.6885170
  84.1155380  42.4904760  16.7146210  83.2648970  42.1910510  17.0355280
  83.9557170  42.7346770  15.8030030  77.9439880  38.0237990   4.8620060
  77.3194060  38.0197860   5.5873370  77.8570000  37.1568950   4.4656030
  74.6195280  43.5260860   7.7095480  74.3936200  43.3098030   8.6142100
  73.8387810  43.9589320   7.3641450  81.8493040  43.5324230   6.3086130
  81.2501930  44.2560030   6.1249750  82.3972650  43.4701010   5.5262580
  80.4557910  42.1687770   8.3389410  80.8487480  42.4859970   7.5258100
  80.8174760  41.2899650   8.4533930  72.1905030  40.8360110  16.5289530
  71.7968420  41.6835320  16.7362310  71.5023430  40.1986480  16.7198170
  69.4922080  38.7588570  10.5619610  69.2035130  39.3291430  11.2744590
  70.2367840  38.2793020  10.9250840  81.0413050  44.7593520  12.4340190
  80.3094170  45.2680330  12.7830290  80.6437390  43.9423500  12.1328970
  77.4790440  41.4347720  10.8392680  77.4826500  40.9937670   9.9897220
  78.3741560  41.7565050  10.9464500  73.3292820  41.3174210   9.7986890
  72.9892870  41.7949440  10.5553940  72.5670140  40.8639330   9.4387990
  77.5410590  42.4359800   3.8299440  77.6623410  42.3946280   4.7785260
  77.1559100  43.2983950   3.6746170  81.5038960  40.2127200  11.8463130
  81.5211700  40.6635850  12.6904980  81.2554540  39.3132840  12.0596570
  76.5532090  44.7460940   3.2282740  75.9848990  44.2979190   2.6018650
  77.2621090  45.1053720   2.6947890  71.6301270  48.6472960  17.1049470
  71.2456060  48.0066630  17.7032430  71.9413460  49.3509080  17.6744200
  77.7798410  45.4949500  12.5858090  78.1468540  45.0208070  13.3319430
  77.5903470  46.3691070  12.9266430  70.6438900  40.2393190   8.7151560
  70.3585820  39.8748860   9.5530180  70.5817760  39.5073650   8.1014700
  75.5697780  44.5358140  14.9042300  75.2654850  45.4150120  15.1292660
  76.5244240  44.5957930  14.9399740  74.0979570  48.7419130   5.5009150
  73.3241830  48.2016750   5.3407870  74.8274200  48.2225740   5.1626910
  84.8567550  47.7384490  11.2935540  85.5766670  48.2339780  10.9031650
  84.6549370  47.0602380  10.6489410  80.3177490  39.1322450   5.4364930
  79.5042100  38.6335620   5.3610240  80.1239440  39.9720700   5.0201280
  83.0325880  43.5042100   3.7327090  83.9205500  43.8159330   3.5578430
  83.0030970  42.6314350   3.3407670  74.1416970  48.4099510   9.1387960
  74.6595640  47.6067770   9.0844850  73.6900990  48.3478650   9.9804790
  79.0286470  49.6765790   4.4115260  79.3702170  50.4208020   3.9158580
  78.1999180  49.9896910   4.7740090  71.6261510  45.3760880  16.0513660
  71.2676450  46.0414730  16.6387000  71.3316070  44.5444430  16.4226280
  80.1703080  50.6314120  16.9308340  80.1847620  49.6995080  16.7127250
  79.4628180  50.7173880  17.5698110  85.3040150  44.8153940   3.2006950
  85.2203870  45.2468160   2.3503390  86.0234340  45.2752290   3.6333770
  86.3814290  47.2721460  16.2776920  85.6562480  47.8650240  16.0806310
  86.9089750  47.2645000  15.4790290  86.3327400  51.6696200   5.9289080
  85.6903560  51.0151820   6.2032800  85.9458060  52.0751290   5.1529750
  81.9113880  48.9981630   9.7760770  82.2637700  48.4009760   9.1162140
  81.0276210  48.6725860   9.9469020  77.9977160  49.7579320   7.1831180
  78.6848290  50.3048530   7.5638770  77.2109580  50.3020050   7.2180790
  70.1369560  45.3752140   2.6748260  71.0064410  45.6576940   2.9584180
  69.6459880  46.1888010   2.5597070  77.3004370  46.7625350   6.7956540
  77.7567150  47.5730600   7.0216730  76.9492580  46.4448490   7.6275030
  79.6036980  52.2731690  14.0248840  80.2479200  52.4791070  14.7022260
  79.9666420  51.5120090  13.5719690  73.2016150  37.1063000   7.2679060
  73.0730780  37.0980900   8.2163980  72.3778170  37.4446090   6.9170070
  80.8769060  50.2764040  12.7426290  81.5191290  49.5757200  12.8558460
  81.4018410  51.0562480  12.5623180  84.7224780  50.5612660   2.4665430
  84.4962360  49.8443100   3.0590070  84.3320980  50.3125100   1.6287180
  82.6506680  51.0758940  15.9462350  82.9862920  51.6625630  16.6240270
  81.7307020  50.9451650  16.1760140  70.5040810  54.5879520   3.2409890
  70.8638450  55.1868860   2.5867160  70.3633150  55.1339410   4.0144920
  70.2010080  38.8654120  16.7285760  69.4868600  39.0651040  17.3338370
  70.6205120  38.0893690  17.1000560  84.3041030  48.4784600   4.1279590
  84.0162730  48.9397290   4.9157470  85.0993200  48.0182370   4.3963810
  70.4882670  52.8534380  17.7152290  70.5973790  51.9129120  17.5747680
  69.8363230  53.1189130  17.0666020  78.4795260  51.1250270  19.1150410
  78.1592130  50.4059510  19.6596100  77.8053620  51.8005340  19.1886470
  76.5209430  51.9710720   4.0583560  76.5119530  52.7040410   3.4428070
  75.6007790  51.7242300   4.1510520  72.1216070  47.1925610   4.8030320
  71.5144020  47.9324510   4.8125620  72.5965420  47.2824970   3.9768520
  81.6948860  41.3576430  14.4787210  82.0629680  40.5371640  14.8066780
  80.8347060  41.4178320  14.8942860  85.0610890  40.3133370   5.2874770
  84.4324050  40.4179040   4.5733000  84.5662810  40.5330150   6.0768650
  79.5069030  52.0338960   2.7208750  79.6081010  51.8302950   1.7910730
  78.6070770  51.7797240   2.9256530  77.0294920  42.5919320   6.7032650
  76.3211070  43.0605660   7.1446260  77.3139400  41.9341330   7.3377840
  78.6550850  44.0116020  14.7025180  79.1536100  44.4861840  15.3677030
  78.7973800  43.0879540  14.9095210  81.0610350  39.3169980   8.1428440
  80.9378130  39.3356110   7.1937950  82.0094910  39.3648920   8.2626840
  78.1487140  54.5525280   7.4156420  78.4028640  54.5146670   6.4935790
  77.1999620  54.4258610   7.4084670  75.2329940  40.9004400   4.0783360
  76.0820470  41.3374550   4.0123550  74.8661210  41.2124660   4.9055420
  85.8617710  40.2283980  15.5453570  85.3591310  40.9689380  15.8847380
  86.6774370  40.6167980  15.2290360  84.1539720  45.4717160   8.9914930
  83.2129860  45.4867390   9.1662620  84.4683790  44.6853120   9.4375230
  74.1321360  47.1536760   2.5518890  74.8984630  47.0418120   3.1144320
  74.2096050  46.4574730   1.8995660  72.8268120  44.5861830   3.2351780
  72.9071710  43.6389340   3.3469180  73.7187870  44.9168710   3.3412440
  86.1565300  52.6426010  10.6669190  86.2812720  53.4657180  11.1393000
  87.0230860  52.4316740  10.3193340  73.6282830  54.7357220  10.3386320
  74.3645310  54.1872680  10.6094890  74.0123750  55.6013230  10.1992310
  70.5128310  50.8030790   6.2127830  69.5868090  51.0451930   6.2033240
  70.9784740  51.6305050   6.0912580  72.6341110  53.9203290  19.5271900
  73.4353840  54.2415340  19.9407300  72.1192930  53.5598870  20.2491810
  76.7385140  53.9087530   2.1611890  77.5313750  54.1976360   1.7093680
  76.2189490  53.4779700   1.4824370  81.4705740  50.0283160  19.4747310
  80.8643900  50.0514760  18.7343060  81.1659850  49.2966200  20.0114560
  82.9006110  53.7563450  18.0856720  83.8527860  53.6721470  18.0356960
  82.7534330  54.4205160  18.7590510  85.7915310  53.1357660   3.5848630
  85.5056820  52.7222800   2.7702810  85.5934860  54.0645370   3.4649150
  70.3538920  46.4076750  18.4707950  70.8577940  45.8284030  19.0424180
  69.6146340  46.6916980  19.0084320  80.4965270  48.1910970   2.6296230
  79.9475370  48.6380270   3.2738970  81.1184530  47.6860220   3.1533900
  84.5500210  49.5453070  18.5618490  85.2909680  49.8828830  18.0585950
  83.7872890  49.7145130  18.0088260  72.3862000  44.5506340  19.3658020
  72.4267340  44.2520210  20.2743250  73.2407500  44.9513950  19.2065540
  76.1640390  47.1501890   4.5261530  76.5856810  46.9841760   5.3692920
  76.2891230  46.3402120   4.0316670  74.3267810  43.1298440  17.3332510
  73.7964270  42.6389390  16.7055850  74.9955880  43.5582640  16.7990440
  83.2245870  47.5967900  17.0973700  83.6386890  47.7512980  17.9464120
  82.2896870  47.7223120  17.2599480  83.6968040  44.9364060  19.1012850
  84.2788810  44.1816380  19.0133330  83.8729810  45.4671500  18.3244330
  77.9861100  47.5488380  15.0669630  78.4049210  48.3921110  14.8945870
  77.0669730  47.6860420  14.8376410  80.3225000  45.2804560  16.4507470
  80.4421210  44.6845700  17.1902310  81.1819000  45.3174250  16.0308770
  82.6612900  45.8341750  15.0269980  82.1348120  46.3584370  14.4235120
  83.0044240  46.4669140  15.6579710  75.8368520  53.8541390  16.1827360
  75.2989610  54.5787450  15.8636060  76.0902480  53.3771730  15.3924700
  77.0893770  41.8225910  17.7083290  77.6793460  41.5141760  18.3961110
  76.2714010  41.3505660  17.8643190  82.5387600  38.0343350   4.0006570
  82.8189890  37.1911250   4.3565990  81.7653330  38.2666460   4.5145320
  78.6930730  55.0892600  16.4414010  78.6189430  55.9927740  16.7486380
  77.7909570  54.7704500  16.4136080  77.0767020  39.2670360   2.4453770
  76.7289020  38.5894350   1.8656220  77.2779790  38.8059870   3.2597160
  79.2416060  54.2551110   4.0640370  80.1366850  54.5936080   4.0859130
  79.2733690  53.5330520   3.4364650  72.8812220  49.6278160   2.2927370
  73.3187090  50.1707830   2.9484950  73.3659950  48.8025110   2.3023710
  70.0958020  52.4167190   9.7447630  70.4261030  51.5488250   9.5126270
  70.5249020  52.6225710  10.5752590  74.6919940  50.7476200   7.4049600
  74.3915480  50.6241170   8.3053510  74.5857430  49.8884790   6.9965330
  70.5848230  53.2837780  12.4829260  70.1479220  53.4638580  13.3153410
  71.1525910  54.0412400  12.3410980  86.2210410  52.7854780  16.7706570
  85.6212400  52.8447340  16.0270490  86.3504310  51.8459760  16.9003420
  87.4611860  50.5272600   2.1076280  86.6304820  50.5949250   2.5783510
  87.6383690  51.4176720   1.8043140  86.9168320  47.2720080   4.6110480
  87.6787230  47.8416730   4.7170170  86.9322690  46.7047280   5.3818790
  70.4172660  45.7958010   8.8418140  69.7621500  45.5269650   8.1977840
  71.2550610  45.6862490   8.3920120  87.9228290  48.1270180   9.4552410
  88.2937120  47.3437500   9.0488380  88.5630220  48.8159280   9.2769710
  84.9062050  49.5106760  14.8682730  84.0921890  49.9403920  15.1308520
  85.3136250  50.1225170  14.2551780  86.9687490  47.5654450   1.7683000
  87.2436330  48.4733330   1.6402220  86.7798230  47.5016980   2.7044990
  83.3663100  40.5899300   3.0636630  83.7847980  40.4030280   2.2233290
  83.0599160  39.7378350   3.3739560  86.8652830  45.5023440   6.7612430
  86.4896430  44.7351370   6.3293720  86.1355950  45.8846140   7.2487360
  71.4548590  46.1810580  13.3821480  71.8221630  46.0937980  14.2617500
  70.8859410  45.4177130  13.2828340  86.2552450  44.6494960  16.3951950
  86.0238540  44.4207710  15.4949900  86.5157000  45.5694510  16.3496840
  71.0064590  43.0919670  17.2879900  70.1120640  43.0586430  17.6273610
  71.5462140  43.2906460  18.0531150  69.6310740  43.0056940   4.7843470
  68.7274820  43.2687140   4.6095130  70.1151360  43.2768110   4.0043430
  86.1403790  43.7280930  10.0619670  86.6641270  43.2343580   9.4309840
  86.7263210  43.8631290  10.8067240  86.3193510  43.8120800  13.5839220
  85.3696220  43.7784340  13.6984210  86.5006520  44.7220910  13.3488990
  72.1737950  42.0622480   2.6937850  72.8829650  41.6405700   2.2085130
  71.4577890  42.1297710   2.0621200  85.6303760  42.9854280   6.0012080
  86.1262880  42.7525150   6.7860960  85.4319830  42.1466120   5.5849720
  71.5104300  37.3668000  11.6363120  72.1580490  36.8165380  11.1958280
  71.9306140  37.6211150  12.4578930  87.0590920  41.6215230   8.5349760
  86.9490200  41.4671270   9.4732030  87.8198510  41.0936170   8.2925170
  87.9481190  39.4523150   1.7755900  88.8730500  39.3204330   1.5674190
  87.9256980  39.5315970   2.7292350  88.0219680  40.2233810   4.4012610
  87.2271180  40.1578930   4.9305520  88.2262960  41.1584450   4.3897960
  84.9638100  54.2625360   8.3951000  85.5597170  53.9409930   7.7185420
  85.2216250  53.7897180   9.1864270  71.2636300  37.5223670  14.3788440
  70.9151120  37.9787490  15.1446620  70.9324000  36.6280800  14.4610870
  72.8700670  50.6943270  18.5441630  72.8270300  50.3236180  19.4256090
  73.0011680  51.6320840  18.6843450  76.5706700  52.2502860  14.1451350
  76.3298060  52.5177420  13.2581870  77.5109340  52.4208590  14.2002210
  87.8310860  54.2697240  14.9461990  87.3369140  54.6666110  14.2289120
  87.2224150  53.6446450  15.3399270  71.9356940  37.0499870  17.6539210
  72.4839930  36.8687920  16.8905320  72.0012250  36.2593980  18.1895520
  72.7088700  53.6405520  15.6639410  72.1149020  53.5090220  16.4029450
  72.7012540  52.8043660  15.1981510  85.5150310  54.9120660  12.2248730
  85.0553280  55.6636470  11.8506750  84.8862770  54.1927130  12.1663530
  72.3400930  51.0063900  14.6147450  71.6134990  50.3869190  14.5473400
  72.4010080  51.4004510  13.7445530  75.9446030  53.2208900  11.3996860
  76.4611050  52.6096260  10.8745120  76.5943410  53.7237680  11.8907870
  78.6841530  54.1117390  12.2265840  78.9719340  53.8571690  11.3498850
  79.1964750  53.5594750  12.8171410  84.4539610  38.5530690  10.8511440
  84.8947700  38.4975790  10.0033040  84.1847200  39.4688700  10.9221620
  86.3178180  38.1845930   8.8620260  86.2566580  37.2407150   8.7151280
  87.0970210  38.2926020   9.4073720  70.6230930  54.3238290   7.8244210
  70.4552970  53.6908970   8.5226100  69.7565440  54.5297690   7.4738400
  71.2458950  38.1555070   5.3276070  72.0038310  38.2683950   4.7540100
  70.7836120  38.9924270   5.2819500  77.7872760  40.2694340   8.3178380
  76.9747270  39.8951230   7.9774260  78.2914400  39.5139420   8.6199570
  82.2897740  36.9336790   9.5561450  82.8927110  37.5057000  10.0309970
  81.5490730  37.4976230   9.3335350  85.4332340  37.3358350   4.8301730
  85.6282970  38.2341800   5.0969160  84.6462210  37.1045430   5.3234680
  72.2293630  53.0171520   5.2694350  71.7041250  53.3979550   4.5656310
  72.1538210  53.6422290   5.9904060  73.6184100  38.6819120   3.8678040
  74.1476860  37.8948920   3.7385990  74.2512420  39.3610310   4.1013570
  75.8121940  38.4194260   6.9223430  75.1824680  37.7181570   7.0893560
  75.2727080  39.1798390   6.7056590  78.7513890  55.0333490  19.5934040
  79.6781200  54.7977760  19.6370000  78.7364320  55.8605490  19.1120070
  86.9858950  54.5759060   6.5908290  87.1611140  53.8896800   5.9469210
  86.2880520  55.1006110   6.1984960  74.8286600  54.9653900   4.1443600
  75.5605420  54.6813180   3.5967490  75.0880270  54.7267180   5.0342980
  73.9901390  51.0818630   4.1489930  73.3610270  51.5503730   4.6975760
  74.1049220  50.2367850   4.5836120  85.3191450  54.2603350  19.4175080
  86.1116770  53.7652580  19.2101040  85.6124600  54.9393490  20.0250690
  81.4451110  26.3580800  65.3965090  81.3645160  25.4435410  65.1256800
  81.0315530  26.8547870  64.6904800  79.5769150  28.1359820  67.2774360
  78.8011250  27.6560260  67.5672930  80.2282080  27.4565470  67.1030520
  73.5934980  28.4479630  68.1550120  72.7619860  28.1928340  68.5546630
  74.2015960  28.5190400  68.8908040  83.5976580  32.5420010  66.0573490
  83.1358110  31.7707250  66.3860660  84.4102130  32.5686080  66.5625940
  73.5736240  32.4819720  68.3508140  73.8764280  31.5917460  68.1718360
  74.3179830  33.0389940  68.1230390  72.0026930  23.4081520  61.9392510
  71.1143630  23.7497490  61.8372390  72.2868120  23.2081840  61.0473340
  69.9659940  26.0087170  67.8232210  70.5376050  25.2409370  67.8235850
  69.9661480  26.3075930  66.9138820  79.8239890  34.8278020  65.6777480
  79.2051330  35.2835520  65.1071920  80.6791670  34.9829480  65.2767180
  79.0178140  30.8117010  67.2844520  78.9486420  29.8706950  67.1233650
  79.7798000  30.9018420  67.8567090  71.2084810  21.4171530  69.6101140
  71.0287650  20.5197280  69.8903900  70.8064890  21.9643400  70.2848090
  80.0483310  23.6187390  67.5113450  80.4248130  22.7459270  67.3987120
  79.9502820  23.9546090  66.6203890  74.1788320  21.9913020  62.9730890
  74.2855070  22.8916750  63.2799650  73.2680680  21.9430990  62.6825540
  83.8307430  21.1137830  64.4441790  84.6517050  20.6234400  64.4867270
  83.8641510  21.7035490  65.1973630  71.8271480  23.9132030  68.2183480
  72.5081590  24.1770400  68.8370880  71.5119530  23.0732900  68.5521490
  76.0196050  24.9599390  67.3056070  76.5274270  25.4580360  67.9461090
  76.5509290  24.1834590  67.1295430  88.1206980  23.1304580  71.0085420
  87.4159150  23.5186290  70.4900530  88.3864900  23.8254870  71.6106350
  74.3032150  19.5997950  71.5719490  74.3050590  20.1170340  70.7665390
  73.4736460  19.1228130  71.5489420  80.6903240  29.7117260  63.0709390
  80.0720510  30.1766710  62.5072110  81.2026490  30.4044740  63.4878900
  75.5535000  29.2393130  69.7492990  75.2204380  29.8662050  70.3914060
  75.7301680  29.7655010  68.9694660  84.0668910  23.0538210  67.2169330
  83.3624480  23.3423100  67.7972440  84.4281070  23.8638320  66.8568890
  73.9847480  21.3107910  69.5789940  74.3264290  22.1549960  69.2843810
  73.0463290  21.4591650  69.6955280  74.7654100  31.2073930  71.5642170
  75.3828100  31.8825010  71.2826620  73.9047220  31.6161910  71.4729670
  70.0586440  30.3973790  60.4449020  69.6814420  30.8860890  59.7133920
  70.3159510  31.0699070  61.0755550  85.6831690  32.6713340  69.4796810
  84.9995210  33.3412450  69.4713480  86.2225980  32.8693990  68.7141670
  87.1355830  22.4993000  67.6078540  86.1880740  22.5331980  67.7393970
  87.4605820  23.3131950  67.9927900  77.6675370  18.7990180  65.9034530
  77.9750350  18.2437070  65.1870030  76.7376070  18.9334640  65.7207520
  83.2190430  34.5157470  68.1941990  83.2317590  34.1119760  67.3264250
  82.6665650  35.2904760  68.0903420  84.5135850  31.2373690  63.2832160
  84.4032180  30.2948020  63.4081580  84.5104100  31.5989330  64.1694920
  82.6175870  29.4187310  69.5224600  83.0344660  29.2047420  68.6878060
  83.3415690  29.6760100  70.0933220  80.0556130  26.8639010  62.6394650
  79.1285410  26.7976390  62.8683120  80.2080950  27.8019140  62.5249890
  80.0425210  23.1356010  59.6361810  79.1028880  23.2969970  59.7214270
  80.3608470  23.8541690  59.0897800  86.5637970  27.8174530  69.6140840
  85.7356600  27.8867620  69.1390970  87.1588450  28.4028840  69.1456670
  84.0853420  28.4259310  63.1429900  83.4665840  28.0878860  62.4956200
  84.0677870  27.7819070  63.8509090  83.5279980  24.6043850  70.5595710
  83.1151160  25.4297560  70.8135700  82.7955930  24.0188890  70.3672070
  75.6612770  27.3903750  65.4214380  75.2569770  26.6781000  64.9260280
  75.7475890  27.0456990  66.3102420  76.1294470  31.0771310  67.5853590
  75.8322760  30.4716780  66.9061370  77.0794290  31.1148620  67.4742950
  74.3741390  24.1646960  69.2013420  74.9255980  24.2742300  68.4266670
  74.8884900  24.5384560  69.9168650  84.2180080  34.6503180  71.2476690
  83.7410640  35.4575370  71.0549300  83.5341870  33.9981510  71.4002900
  75.2212900  30.8153000  74.2361390  74.3241430  31.0392970  74.4834790
  75.2465770  30.9387940  73.2872790  82.2618120  27.6646120  60.1502650
  82.7011400  26.8268550  60.0040470  82.9746540  28.2975520  60.2366790
  74.0484120  27.6866320  72.8118760  73.9091890  28.5589120  73.1806160
  73.1665480  27.3439130  72.6666700  80.3713500  32.6042190  64.1183890
  80.8109410  33.3466520  63.7039280  80.3100390  32.8468760  65.0422850
  75.8464470  33.6288020  75.0203910  75.8179900  34.0330970  74.1532340
  75.6829440  32.6998380  74.8575510  85.8435260  18.9188930  58.4643690
  85.5307920  19.0115760  59.3642760  86.6047730  19.4969960  58.4141120
  72.3617400  26.2848730  62.9221030  72.2415000  27.0110820  62.3102300
  72.0518290  25.5151640  62.4448940  70.0002770  29.4563870  68.7289670
  70.0783190  29.5912640  67.7845390  70.6144450  28.7479760  68.9217790
  71.2450400  31.1564060  65.1395850  70.8378480  31.2978650  64.2849450
  72.1363410  30.8724220  64.9367060  87.2012540  31.6027970  73.4768090
  87.3275600  31.3639850  72.5585270  87.2433920  30.7712510  73.9490170
  81.0629280  35.3055970  72.0462900  81.5773950  35.2163980  72.8485330
  80.2198360  35.6515670  72.3390810  83.0383680  35.5911310  61.4746900
  82.8784820  35.3014250  62.3728730  82.8730390  34.8151440  60.9392130
  75.5172060  35.3709840  63.2518520  75.3414540  34.4545380  63.0386320
  74.6627800  35.7297130  63.4916320  82.7409810  33.0998870  60.0344900
  82.0474970  33.0976160  59.3747180  83.4832670  32.6758190  59.6039070
  82.3059740  34.7261580  64.1093390  82.7616690  33.9450960  64.4232010
  82.6452260  35.4368400  64.6534570  87.0536550  23.6560430  74.4417830
  86.4380820  24.1640100  73.9133290  86.7332970  22.7558760  74.3843770
  70.0562290  30.4978040  71.2684130  70.2193330  30.0283400  70.4503500
  70.5214740  29.9901600  71.9332970  74.8281060  19.6283800  66.3044700
  74.3849210  20.4093340  65.9729220  75.3866050  19.9513690  67.0115640
  79.1150870  22.4952320  71.9080020  78.6530240  22.7035340  72.7199960
  78.7128980  21.6811670  71.6050690  84.1155380  23.7161270  73.0376680
  83.2648970  23.4167020  73.3585750  83.9557170  23.9603280  72.1260500
  81.2105090  25.2163020  75.1375470  81.5358500  24.3826770  74.7977700
  81.9985420  25.7391540  75.2853800  77.9439880  19.2494500  61.1850530
  77.3194060  19.2454370  61.9103840  77.8570000  18.3825460  60.7886500
  76.8656960  20.1731130  68.1634300  77.1629290  21.0793960  68.0826320
  77.4142520  19.6849910  67.5493870  74.6195280  24.7517370  64.0325950
  74.3936200  24.5354540  64.9372570  73.8387810  25.1845830  63.6871920
  81.8493040  24.7580740  62.6316600  81.2501930  25.4816540  62.4480220
  82.3972650  24.6957520  61.8493050  77.0594490  25.6502950  74.6986220
  76.9638090  24.7097680  74.5486620  77.9026470  25.8718020  74.3034290
  80.4557910  23.3944280  64.6619880  80.8487480  23.7116480  63.8488570
  80.8174760  22.5156160  64.7764400  72.1905030  22.0616620  72.8520000
  71.7968420  22.9091830  73.0592780  71.5023430  21.4242990  73.0428640
  69.4922080  19.9845080  66.8850080  69.2035130  20.5547940  67.5975060
  70.2367840  19.5049530  67.2481310  69.6792310  23.9265200  58.0952800
  69.5966980  24.8695960  58.2367790  69.3275370  23.7840110  57.2165150
  81.0413050  25.9850030  68.7570660  80.3094170  26.4936840  69.1060760
  80.6437390  25.1680010  68.4559440  77.4790440  22.6604230  67.1623150
  77.4826500  22.2194180  66.3127690  78.3741560  22.9821560  67.2694970
  73.3292820  22.5430720  66.1217360  72.9892870  23.0205950  66.8784410
  72.5670140  22.0895840  65.7618460  77.5410590  23.6616310  60.1529910
  77.6623410  23.6202790  61.1015730  77.1559100  24.5240460  59.9976640
  81.5038960  21.4383710  68.1693600  81.5211700  21.8892360  69.0135450
  81.2554540  20.5389350  68.3827040  76.5532090  25.9717450  59.5513210
  75.9848990  25.5235700  58.9249120  77.2621090  26.3310230  59.0178360
  84.9309710  18.8515890  74.0079980  85.2555480  18.1205550  74.5337960
  84.9666220  18.5329530  73.1060970  71.6301270  29.8729470  73.4279940
  71.2456060  29.2323140  74.0262900  71.9413460  30.5765590  73.9974670
  77.7798410  26.7206010  68.9088560  78.1468540  26.2464580  69.6549900
  77.5903470  27.5947580  69.2496900  70.6438900  21.4649700  65.0382030
  70.3585820  21.1005370  65.8760650  70.5817760  20.7330160  64.4245170
  75.5697780  25.7614650  71.2272770  75.2654850  26.6406630  71.4523130
  76.5244240  25.8214440  71.2630210  74.0979570  29.9675640  61.8239620
  73.3241830  29.4273260  61.6638340  74.8274200  29.4482250  61.4857380
  84.8567550  28.9641000  67.6166010  85.5766670  29.4596290  67.2262120
  84.6549370  28.2858890  66.9719880  80.3177490  20.3578960  61.7595400
  79.5042100  19.8592130  61.6840710  80.1239440  21.1977210  61.3431750
  80.2386350  29.0350060  73.5035010  80.1723660  28.1145730  73.2492600
  79.6091490  29.1325500  74.2179650  83.0325880  24.7298610  60.0557560
  83.9205500  25.0415840  59.8808900  83.0030970  23.8570860  59.6638140
  74.1416970  29.6356020  65.4618430  74.6595640  28.8324280  65.4075320
  73.6900990  29.5735160  66.3035260  79.0286470  30.9022300  60.7345730
  79.3702170  31.6464530  60.2389050  78.1999180  31.2153420  61.0970560
  71.6261510  26.6017390  72.3744130  71.2676450  27.2671240  72.9617470
  71.3316070  25.7700940  72.7456750  74.8274630  27.0601630  75.2583680
  74.5274770  27.2058810  74.3611500  75.5985870  26.5006920  75.1657070
  80.1703080  31.8570630  73.2538810  80.1847620  30.9251590  73.0357720
  79.4628180  31.9430390  73.8928580  85.3040150  26.0410450  59.5237420
  85.2203870  26.4724670  58.6733860  86.0234340  26.5008800  59.9564240
  86.3814290  28.4977970  72.6007390  85.6562480  29.0906750  72.4036780
  86.9089750  28.4901510  71.8020760  86.3327400  32.8952710  62.2519550
  85.6903560  32.2408330  62.5263270  85.9458060  33.3007800  61.4760220
  81.9113880  30.2238140  66.0991240  82.2637700  29.6266270  65.4392610
  81.0276210  29.8982370  66.2699490  77.9977160  30.9835830  63.5061650
  78.6848290  31.5305040  63.8869240  77.2109580  31.5276560  63.5411260
  70.1369560  26.6008650  58.9978730  71.0064410  26.8833450  59.2814650
  69.6459880  27.4144520  58.8827540  77.3004370  27.9881860  63.1187010
  77.7567150  28.7987110  63.3447200  76.9492580  27.6705000  63.9505500
  79.6036980  33.4988200  70.3479310  80.2479200  33.7047580  71.0252730
  79.9666420  32.7376600  69.8950160  73.2016150  18.3319510  63.5909530
  73.0730780  18.3237410  64.5394450  72.3778170  18.6702600  63.2400540
  80.8769060  31.5020550  69.0656760  81.5191290  30.8013710  69.1788930
  81.4018410  32.2818990  68.8853650  84.7224780  31.7869170  58.7895900
  84.4962360  31.0699610  59.3820540  84.3320980  31.5381610  57.9517650
  82.6506680  32.3015450  72.2692820  82.9862920  32.8882140  72.9470740
  81.7307020  32.1708160  72.4990610  70.5040810  35.8136030  59.5640360
  70.8638450  36.4125370  58.9097630  70.3633150  36.3595920  60.3375390
  70.2010080  20.0910630  73.0516230  69.4868600  20.2907550  73.6568840
  70.6205120  19.3150200  73.4231030  84.3041030  29.7041110  60.4510060
  84.0162730  30.1653800  61.2387940  85.0993200  29.2438880  60.7194280
  70.4882670  34.0790890  74.0382760  70.5973790  33.1385630  73.8978150
  69.8363230  34.3445640  73.3896490  78.4795260  32.3506780  75.4380880
  78.1592130  31.6316020  75.9826570  77.8053620  33.0261850  75.5116940
  76.5209430  33.1967230  60.3814030  76.5119530  33.9296920  59.7658540
  75.6007790  32.9498810  60.4740990  72.1216070  28.4182120  61.1260790
  71.5144020  29.1581020  61.1356090  72.5965420  28.5081480  60.2998990
  81.6948860  22.5832940  70.8017680  82.0629680  21.7628150  71.1297250
  80.8347060  22.6434830  71.2173330  85.0610890  21.5389880  61.6105240
  84.4324050  21.6435550  60.8963470  84.5662810  21.7586660  62.3999120
  79.5069030  33.2595470  59.0439220  79.6081010  33.0559460  58.1141200
  78.6070770  33.0053750  59.2487000  77.0294920  23.8175830  63.0263120
  76.3211070  24.2862170  63.4676730  77.3139400  23.1597840  63.6608310
  78.6550850  25.2372530  71.0255650  79.1536100  25.7118350  71.6907500
  78.7973800  24.3136050  71.2325680  81.0610350  20.5426490  64.4658910
  80.9378130  20.5612620  63.5168420  82.0094910  20.5905430  64.5857310
  78.1487140  35.7781790  63.7386890  78.4028640  35.7403180  62.8166260
  77.1999620  35.6515120  63.7315140  75.2329940  22.1260910  60.4013830
  76.0820470  22.5631060  60.3354020  74.8661210  22.4381170  61.2285890
  85.8617710  21.4540490  71.8684040  85.3591310  22.1945890  72.2077850
  86.6774370  21.8424490  71.5520830  84.1539720  26.6973670  65.3145400
  83.2129860  26.7123900  65.4893090  84.4683790  25.9109630  65.7605700
  74.1321360  28.3793270  58.8749360  74.8984630  28.2674630  59.4374790
  74.2096050  27.6831240  58.2226130  72.8268120  25.8118340  59.5582250
  72.9071710  24.8645850  59.6699650  73.7187870  26.1425220  59.6642910
  86.1565300  33.8682520  66.9899660  86.2812720  34.6913690  67.4623470
  87.0230860  33.6573250  66.6423810  73.6282830  35.9613730  66.6616790
  74.3645310  35.4129190  66.9325360  74.0123750  36.8269740  66.5222780
  70.5128310  32.0287300  62.5358300  69.5868090  32.2708440  62.5263710
  70.9784740  32.8561560  62.4143050  76.7385140  35.1344040  58.4842360
  77.5313750  35.4232870  58.0324150  76.2189490  34.7036210  57.8054840
  82.9006110  34.9819960  74.4087190  83.8527860  34.8977980  74.3587430
  82.7534330  35.6461670  75.0820980  85.7915310  34.3614170  59.9079100
  85.5056820  33.9479310  59.0933280  85.5934860  35.2901880  59.7879620
  70.3538920  27.6333260  74.7938420  70.8577940  27.0540540  75.3654650
  69.6146340  27.9173490  75.3314790  77.2562540  30.3547450  58.3484710
  77.1513180  29.7399800  59.0746090  77.0886760  29.8313340  57.5647720
  77.4076860  29.0404250  74.3273940  76.6422530  29.6089250  74.2428610
  77.5892820  28.7480460  73.4342170  80.4965270  29.4167480  58.9526700
  79.9475370  29.8636780  59.5969440  81.1184530  28.9116730  59.4764370
  84.5500210  30.7709580  74.8848960  85.2909680  31.1085340  74.3816420
  83.7872890  30.9401640  74.3318730  76.1640390  28.3758400  60.8492000
  76.5856810  28.2098270  61.6923390  76.2891230  27.5658630  60.3547140
  74.3267810  24.3554950  73.6562980  73.7964270  23.8645900  73.0286320
  74.9955880  24.7839150  73.1220910  78.6768030  27.3996010  58.0969100
  79.1973690  26.6845030  57.7310250  79.3236430  28.0381880  58.3969610
  83.2245870  28.8224410  73.4204170  83.6386890  28.9769490  74.2694590
  82.2896870  28.9479630  73.5829950  83.6968040  26.1620570  75.4243320
  84.2788810  25.4072890  75.3363800  83.8729810  26.6928010  74.6474800
  74.8140110  21.3217320  73.7360270  74.7196980  20.7038070  73.0111140
  74.2337500  22.0483610  73.5090180  77.5801550  19.8790560  70.7687660
  77.1318850  19.9014820  69.9233210  76.9466750  19.4809580  71.3657960
  77.9861100  28.7744890  71.3900100  78.4049210  29.6177620  71.2176340
  77.0669730  28.9116930  71.1606880  80.3225000  26.5061070  72.7737940
  80.4421210  25.9102210  73.5132780  81.1819000  26.5430760  72.3539240
  82.6612900  27.0598260  71.3500450  82.1348120  27.5840880  70.7465590
  83.0044240  27.6925650  71.9810180  75.0599290  24.4491630  57.7950160
  74.8588350  23.5858990  58.1563500  74.8891340  24.3624990  56.8571760
  75.8368520  35.0797900  72.5057830  75.2989610  35.8043960  72.1866530
  76.0902480  34.6028240  71.7155170  77.0893770  23.0482420  74.0313760
  77.6793460  22.7398270  74.7191580  76.2714010  22.5762170  74.1873660
  81.9087200  22.6648230  74.2646780  81.2202720  22.0029770  74.1996770
  82.6293220  22.2186500  74.7095240  82.5387600  19.2599860  60.3237040
  82.8189890  18.4167760  60.6796460  81.7653330  19.4922970  60.8375790
  73.8582090  21.5492250  57.7828040  74.1607990  21.5559680  56.8747190
  74.5976680  21.1990110  58.2795700  78.6930730  36.3149110  72.7644480
  78.6189430  37.2184250  73.0716850  77.7909570  35.9961010  72.7366550
  77.0767020  20.4926870  58.7684240  76.7289020  19.8150860  58.1886690
  77.2779790  20.0316380  59.5827630  79.2416060  35.4807620  60.3870840
  80.1366850  35.8192590  60.4089600  79.2733690  34.7587030  59.7595120
  72.8812220  30.8534670  58.6157840  73.3187090  31.3964340  59.2715420
  73.3659950  30.0281620  58.6254180  70.0958020  33.6423700  66.0678100
  70.4261030  32.7744760  65.8356740  70.5249020  33.8482220  66.8983060
  74.6919940  31.9732710  63.7280070  74.3915480  31.8497680  64.6283980
  74.5857430  31.1141300  63.3195800  70.5848230  34.5094290  68.8059730
  70.1479220  34.6895090  69.6383880  71.1525910  35.2668910  68.6641450
  86.2210410  34.0111290  73.0937040  85.6212400  34.0703850  72.3500960
  86.3504310  33.0716270  73.2233890  87.4611860  31.7529110  58.4306750
  86.6304820  31.8205760  58.9013980  87.6383690  32.6433230  58.1273610
  86.9168320  28.4976590  60.9340950  87.6787230  29.0673240  61.0400640
  86.9322690  27.9303790  61.7049260  70.4172660  27.0214520  65.1648610
  69.7621500  26.7526160  64.5208310  71.2550610  26.9119000  64.7150590
  87.9228290  29.3526690  65.7782880  88.2937120  28.5694010  65.3718850
  88.5630220  30.0415790  65.6000180  84.9062050  30.7363270  71.1913200
  84.0921890  31.1660430  71.4538990  85.3136250  31.3481680  70.5782250
  86.9687490  28.7910960  58.0913470  87.2436330  29.6989840  57.9632690
  86.7798230  28.7273490  59.0275460  83.3663100  21.8155810  59.3867100
  83.7847980  21.6286790  58.5463760  83.0599160  20.9634860  59.6970030
  86.8652830  26.7279950  63.0842900  86.4896430  25.9607880  62.6524190
  86.1355950  27.1102650  63.5717830  71.4548590  27.4067090  69.7051950
  71.8221630  27.3194490  70.5847970  70.8859410  26.6433640  69.6058810
  86.2552450  25.8751470  72.7182420  86.0238540  25.6464220  71.8180370
  86.5157000  26.7951020  72.6727310  71.0064590  24.3176180  73.6110370
  70.1120640  24.2842940  73.9504080  71.5462140  24.5162970  74.3761620
  84.6940520  21.1007900  75.4962120  85.5710700  21.1091300  75.8796120
  84.7061360  20.3638740  74.8854470  69.6310740  24.2313450  61.1073940
  68.7274820  24.4943650  60.9325600  70.1151360  24.5024620  60.3273900
  86.1403790  24.9537440  66.3850140  86.6641270  24.4600090  65.7540310
  86.7263210  25.0887800  67.1297710  86.3193510  25.0377310  69.9069690
  85.3696220  25.0040850  70.0214680  86.5006520  25.9477420  69.6719460
  72.1737950  23.2878990  59.0168320  72.8829650  22.8662210  58.5315600
  71.4577890  23.3554220  58.3851670  71.8212110  19.3418320  58.0570970
  72.5440240  19.8827260  58.3752190  72.0936630  19.0681740  57.1812510
  85.6303760  24.2110790  62.3242550  86.1262880  23.9781660  63.1091430
  85.4319830  23.3722630  61.9080190  71.5104300  18.5924510  67.9593590
  72.1580490  18.0421890  67.5188750  71.9306140  18.8467660  68.7809400
  87.0590920  22.8471740  64.8580230  86.9490200  22.6927780  65.7962500
  87.8198510  22.3192680  64.6155640  85.4056640  18.7865870  71.3163230
  86.0428860  19.4000010  71.6822420  85.5531530  18.8226530  70.3712460
  87.9481190  20.6779660  58.0986370  88.8730500  20.5460840  57.8904660
  87.9256980  20.7572480  59.0522820  88.0219680  21.4490320  60.7243080
  87.2271180  21.3835440  61.2535990  88.2262960  22.3840960  60.7128430
  84.9638100  35.4881870  64.7181470  85.5597170  35.1666440  64.0415890
  85.2216250  35.0153690  65.5094740  71.2636300  18.7480180  70.7018910
  70.9151120  19.2044000  71.4677090  70.9324000  17.8537310  70.7841340
  72.8700670  31.9199780  74.8672100  72.8270300  31.5492690  75.7486560
  73.0011680  32.8577350  75.0073920  76.5706700  33.4759370  70.4681820
  76.3298060  33.7433930  69.5812340  77.5109340  33.6465100  70.5232680
  78.7761120  19.9392060  74.2238330  78.7150010  20.5313890  74.9733740
  79.7161500  19.8318020  74.0788590  81.4135680  19.5962120  73.8630620
  82.0276090  19.9141410  73.2011700  81.9585240  19.1110710  74.4826480
  87.8310860  35.4953750  71.2692460  87.3369140  35.8922620  70.5519590
  87.2224150  34.8702960  71.6629740  71.9356940  18.2756380  73.9769680
  72.4839930  18.0944430  73.2135790  72.0012250  17.4850490  74.5125990
  72.7088700  34.8662030  71.9869880  72.1149020  34.7346730  72.7259920
  72.7012540  34.0300170  71.5211980  82.1543720  18.1594260  70.1899910
  81.2803560  18.4929370  69.9872840  82.0454470  17.6867440  71.0151780
  83.0615700  20.3665130  71.5741630  82.7329060  19.5516890  71.1943360
  84.0098000  20.3234940  71.4507320  85.5150310  36.1377170  68.5479200
  85.0553280  36.8892980  68.1737220  84.8862770  35.4183640  68.4894000
  72.3400930  32.2320410  70.9377920  71.6134990  31.6125700  70.8703870
  72.4010080  32.6261020  70.0676000  75.9446030  34.4465410  67.7227330
  76.4611050  33.8352770  67.1975590  76.5943410  34.9494190  68.2138340
  78.6841530  35.3373900  68.5496310  78.9719340  35.0828200  67.6729320
  79.1964750  34.7851260  69.1401880  79.9018540  19.0764100  69.1292820
  79.1190330  19.5509600  69.4089580  79.6081470  18.1718930  69.0206000
  84.4539610  19.7787200  67.1741910  84.8947700  19.7232300  66.3263510
  84.1847200  20.6945210  67.2452090  86.3178180  19.4102440  65.1850730
  86.2566580  18.4663660  65.0381750  87.0970210  19.5182530  65.7304190
  70.6230930  35.5494800  64.1474680  70.4552970  34.9165480  64.8456570
  69.7565440  35.7554200  63.7968870  71.2458950  19.3811580  61.6506540
  72.0038310  19.4940460  61.0770570  70.7836120  20.2180780  61.6049970
  77.7872760  21.4950850  64.6408850  76.9747270  21.1207740  64.3004730
  78.2914400  20.7395930  64.9430040  82.2897740  18.1593300  65.8791920
  82.8927110  18.7313510  66.3540440  81.5490730  18.7232740  65.6565820
  85.4332340  18.5614860  61.1532200  85.6282970  19.4598310  61.4199630
  84.6462210  18.3301940  61.6465150  72.2293630  34.2428030  61.5924820
  71.7041250  34.6236060  60.8886780  72.1538210  34.8678800  62.3134530
  73.6184100  19.9075630  60.1908510  74.1476860  19.1205430  60.0616460
  74.2512420  20.5866820  60.4244040  75.8121940  19.6450770  63.2453900
  75.1824680  18.9438080  63.4124030  75.2727080  20.4054900  63.0287060
  78.7513890  36.2590000  75.9164510  79.6781200  36.0234270  75.9600470
  78.7364320  37.0862000  75.4350540  86.9858950  35.8015570  62.9138760
  87.1611140  35.1153310  62.2699680  86.2880520  36.3262620  62.5215430
  75.9377500  18.9234750  75.6806390  75.6561770  19.4268350  74.9167210
  76.3197200  18.1256500  75.3148520  74.8286600  36.1910410  60.4674070
  75.5605420  35.9069690  59.9197960  75.0880270  35.9523690  61.3573450
  73.9901390  32.3075140  60.4720400  73.3610270  32.7760240  61.0206230
  74.1049220  31.4624360  60.9066590  81.4451110  26.3580800  46.6221600
  81.3645160  25.4435410  46.3513310  81.0315530  26.8547870  45.9161310
  79.5769150  28.1359820  48.5030870  78.8011250  27.6560260  48.7929440
  80.2282080  27.4565470  48.3287030  73.5934980  28.4479630  49.3806630
  72.7619860  28.1928340  49.7803140  74.2015960  28.5190400  50.1164550
  73.5736240  32.4819720  49.5764650  73.8764280  31.5917460  49.3974870
  74.3179830  33.0389940  49.3486900  69.9659940  26.0087170  49.0488720
  70.5376050  25.2409370  49.0492360  69.9661480  26.3075930  48.1395330
  79.8239890  34.8278020  46.9033990  79.2051330  35.2835520  46.3328430
  80.6791670  34.9829480  46.5023690  79.0178140  30.8117010  48.5101030
  78.9486420  29.8706950  48.3490160  79.7798000  30.9018420  49.0823600
  71.2084810  21.4171530  50.8357650  71.0287650  20.5197280  51.1160410
  70.8064890  21.9643400  51.5104600  80.0483310  23.6187390  48.7369960
  80.4248130  22.7459270  48.6243630  79.9502820  23.9546090  47.8460400
  83.8307430  21.1137830  45.6698300  84.6517050  20.6234400  45.7123780
  83.8641510  21.7035490  46.4230140  71.8271480  23.9132030  49.4439990
  72.5081590  24.1770400  50.0627390  71.5119530  23.0732900  49.7778000
  76.0196050  24.9599390  48.5312580  76.5274270  25.4580360  49.1717600
  76.5509290  24.1834590  48.3551940  88.1206980  23.1304580  52.2341930
  87.4159150  23.5186290  51.7157040  88.3864900  23.8254870  52.8362860
  74.3032150  19.5997950  52.7976000  74.3050590  20.1170340  51.9921900
  73.4736460  19.1228130  52.7745930  75.5535000  29.2393130  50.9749500
  75.2204380  29.8662050  51.6170570  75.7301680  29.7655010  50.1951170
  84.0668910  23.0538210  48.4425840  83.3624480  23.3423100  49.0228950
  84.4281070  23.8638320  48.0825400  73.9847480  21.3107910  50.8046450
  74.3264290  22.1549960  50.5100320  73.0463290  21.4591650  50.9211790
  74.7654100  31.2073930  52.7898680  75.3828100  31.8825010  52.5083130
  73.9047220  31.6161910  52.6986180  87.1355830  22.4993000  48.8335050
  86.1880740  22.5331980  48.9650480  87.4605820  23.3131950  49.2184410
  82.6175870  29.4187310  50.7481110  83.0344660  29.2047420  49.9134570
  83.3415690  29.6760100  51.3189730  86.5637970  27.8174530  50.8397350
  85.7356600  27.8867620  50.3647480  87.1588450  28.4028840  50.3713180
  84.0853420  28.4259310  44.3686410  83.4665840  28.0878860  43.7212710
  84.0677870  27.7819070  45.0765600  83.5279980  24.6043850  51.7852220
  83.1151160  25.4297560  52.0392210  82.7955930  24.0188890  51.5928580
  75.6612770  27.3903750  46.6470890  75.2569770  26.6781000  46.1516790
  75.7475890  27.0456990  47.5358930  76.1294470  31.0771310  48.8110100
  75.8322760  30.4716780  48.1317880  77.0794290  31.1148620  48.6999460
  74.3741390  24.1646960  50.4269930  74.9255980  24.2742300  49.6523180
  74.8884900  24.5384560  51.1425160  75.2212900  30.8153000  55.4617900
  74.3241430  31.0392970  55.7091300  75.2465770  30.9387940  54.5129300
  74.0484120  27.6866320  54.0375270  73.9091890  28.5589120  54.4062670
  73.1665480  27.3439130  53.8923210  75.8464470  33.6288020  56.2460420
  75.8179900  34.0330970  55.3788850  75.6829440  32.6998380  56.0832020
  85.8435260  18.9188930  39.6900200  85.5307920  19.0115760  40.5899270
  86.6047730  19.4969960  39.6397630  72.3617400  26.2848730  44.1477540
  72.2415000  27.0110820  43.5358810  72.0518290  25.5151640  43.6705450
  87.7979290  34.4115120  57.5424590  88.2739010  34.8898010  58.2213670
  88.4186450  34.3432610  56.8170090  70.0002770  29.4563870  49.9546180
  70.0783190  29.5912640  49.0101900  70.6144450  28.7479760  50.1474300
  87.2012540  31.6027970  54.7024600  87.3275600  31.3639850  53.7841780
  87.2433920  30.7712510  55.1746680  81.0629280  35.3055970  53.2719410
  81.5773950  35.2163980  54.0741840  80.2198360  35.6515670  53.5647320
  87.0536550  23.6560430  55.6674340  86.4380820  24.1640100  55.1389800
  86.7332970  22.7558760  55.6100280  70.0562290  30.4978040  52.4940640
  70.2193330  30.0283400  51.6760010  70.5214740  29.9901600  53.1589480
  79.1150870  22.4952320  53.1336530  78.6530240  22.7035340  53.9456470
  78.7128980  21.6811670  52.8307200  84.1155380  23.7161270  54.2633190
  83.2648970  23.4167020  54.5842260  83.9557170  23.9603280  53.3517010
  81.2105090  25.2163020  56.3631980  81.5358500  24.3826770  56.0234210
  81.9985420  25.7391540  56.5110310  76.8656960  20.1731130  49.3890810
  77.1629290  21.0793960  49.3082830  77.4142520  19.6849910  48.7750380
  74.6195280  24.7517370  45.2582460  74.3936200  24.5354540  46.1629080
  73.8387810  25.1845830  44.9128430  81.8493040  24.7580740  43.8573110
  81.2501930  25.4816540  43.6736730  82.3972650  24.6957520  43.0749560
  77.0594490  25.6502950  55.9242730  76.9638090  24.7097680  55.7743130
  77.9026470  25.8718020  55.5290800  80.4557910  23.3944280  45.8876390
  80.8487480  23.7116480  45.0745080  80.8174760  22.5156160  46.0020910
  72.1905030  22.0616620  54.0776510  71.7968420  22.9091830  54.2849290
  71.5023430  21.4242990  54.2685150  78.7650080  22.1451590  57.1473250
  78.0748400  21.9523790  57.7819340  79.5082380  22.4286230  57.6797550
  69.4922080  19.9845080  48.1106590  69.2035130  20.5547940  48.8231570
  70.2367840  19.5049530  48.4737820  81.0413050  25.9850030  49.9827170
  80.3094170  26.4936840  50.3317270  80.6437390  25.1680010  49.6815950
  73.3292820  22.5430720  47.3473870  72.9892870  23.0205950  48.1040920
  72.5670140  22.0895840  46.9874970  81.5038960  21.4383710  49.3950110
  81.5211700  21.8892360  50.2391960  81.2554540  20.5389350  49.6083550
  84.9309710  18.8515890  55.2336490  85.2555480  18.1205550  55.7594470
  84.9666220  18.5329530  54.3317480  71.6301270  29.8729470  54.6536450
  71.2456060  29.2323140  55.2519410  71.9413460  30.5765590  55.2231180
  77.7798410  26.7206010  50.1345070  78.1468540  26.2464580  50.8806410
  77.5903470  27.5947580  50.4753410  70.6438900  21.4649700  46.2638540
  70.3585820  21.1005370  47.1017160  70.5817760  20.7330160  45.6501680
  75.5697780  25.7614650  52.4529280  75.2654850  26.6406630  52.6779640
  76.5244240  25.8214440  52.4886720  84.8567550  28.9641000  48.8422520
  85.5766670  29.4596290  48.4518630  84.6549370  28.2858890  48.1976390
  80.2386350  29.0350060  54.7291520  80.1723660  28.1145730  54.4749110
  79.6091490  29.1325500  55.4436160  74.1416970  29.6356020  46.6874940
  74.6595640  28.8324280  46.6331830  73.6900990  29.5735160  47.5291770
  71.6261510  26.6017390  53.6000640  71.2676450  27.2671240  54.1873980
  71.3316070  25.7700940  53.9713260  74.8274630  27.0601630  56.4840190
  74.5274770  27.2058810  55.5868010  75.5985870  26.5006920  56.3913580
  80.1703080  31.8570630  54.4795320  80.1847620  30.9251590  54.2614230
  79.4628180  31.9430390  55.1185090  86.3814290  28.4977970  53.8263900
  85.6562480  29.0906750  53.6293290  86.9089750  28.4901510  53.0277270
  81.9113880  30.2238140  47.3247750  82.2637700  29.6266270  46.6649120
  81.0276210  29.8982370  47.4956000  77.9977160  30.9835830  44.7318160
  78.6848290  31.5305040  45.1125750  77.2109580  31.5276560  44.7667770
  79.6036980  33.4988200  51.5735820  80.2479200  33.7047580  52.2509240
  79.9666420  32.7376600  51.1206670  80.8769060  31.5020550  50.2913270
  81.5191290  30.8013710  50.4045440  81.4018410  32.2818990  50.1110160
  82.6506680  32.3015450  53.4949330  82.9862920  32.8882140  54.1727250
  81.7307020  32.1708160  53.7247120  70.2010080  20.0910630  54.2772740
  69.4868600  20.2907550  54.8825350  70.6205120  19.3150200  54.6487540
  70.4882670  34.0790890  55.2639270  70.5973790  33.1385630  55.1234660
  69.8363230  34.3445640  54.6153000  78.4795260  32.3506780  56.6637390
  78.1592130  31.6316020  57.2083080  77.8053620  33.0261850  56.7373450
  81.6948860  22.5832940  52.0274190  82.0629680  21.7628150  52.3553760
  80.8347060  22.6434830  52.4429840  78.6550850  25.2372530  52.2512160
  79.1536100  25.7118350  52.9164010  78.7973800  24.3136050  52.4582190
  85.8617710  21.4540490  53.0940550  85.3591310  22.1945890  53.4334360
  86.6774370  21.8424490  52.7777340  84.1539720  26.6973670  46.5401910
  83.2129860  26.7123900  46.7149600  84.4683790  25.9109630  46.9862210
  72.6341110  35.1459800  57.0758880  73.4353840  35.4671850  57.4894280
  72.1192930  34.7855380  57.7978790  81.4705740  31.2539670  57.0234290
  80.8643900  31.2771270  56.2830040  81.1659850  30.5222710  57.5601540
  82.9006110  34.9819960  55.6343700  83.8527860  34.8977980  55.5843940
  82.7534330  35.6461670  56.3077490  70.3538920  27.6333260  56.0194930
  70.8577940  27.0540540  56.5911160  69.6146340  27.9173490  56.5571300
  77.4076860  29.0404250  55.5530450  76.6422530  29.6089250  55.4685120
  77.5892820  28.7480460  54.6598680  84.5500210  30.7709580  56.1105470
  85.2909680  31.1085340  55.6072930  83.7872890  30.9401640  55.5575240
  72.3862000  25.7762850  56.9145000  72.4267340  25.4776720  57.8230230
  73.2407500  26.1770460  56.7552520  74.3267810  24.3554950  54.8819490
  73.7964270  23.8645900  54.2542830  74.9955880  24.7839150  54.3477420
  83.2245870  28.8224410  54.6460680  83.6386890  28.9769490  55.4951100
  82.2896870  28.9479630  54.8086460  83.6968040  26.1620570  56.6499830
  84.2788810  25.4072890  56.5620310  83.8729810  26.6928010  55.8731310
  74.8140110  21.3217320  54.9616780  74.7196980  20.7038070  54.2367650
  74.2337500  22.0483610  54.7346690  77.5801550  19.8790560  51.9944170
  77.1318850  19.9014820  51.1489720  76.9466750  19.4809580  52.5914470
  77.9861100  28.7744890  52.6156610  78.4049210  29.6177620  52.4432850
  77.0669730  28.9116930  52.3863390  80.3225000  26.5061070  53.9994450
  80.4421210  25.9102210  54.7389290  81.1819000  26.5430760  53.5795750
  82.6612900  27.0598260  52.5756960  82.1348120  27.5840880  51.9722100
  83.0044240  27.6925650  53.2066690  75.8368520  35.0797900  53.7314340
  75.2989610  35.8043960  53.4123040  76.0902480  34.6028240  52.9411680
  77.0893770  23.0482420  55.2570270  77.6793460  22.7398270  55.9448090
  76.2714010  22.5762170  55.4130170  81.9087200  22.6648230  55.4903290
  81.2202720  22.0029770  55.4253280  82.6293220  22.2186500  55.9351750
  78.6930730  36.3149110  53.9900990  78.6189430  37.2184250  54.2973360
  77.7909570  35.9961010  53.9623060  86.2210410  34.0111290  54.3193550
  85.6212400  34.0703850  53.5757470  86.3504310  33.0716270  54.4490400
  70.4172660  27.0214520  46.3905120  69.7621500  26.7526160  45.7464820
  71.2550610  26.9119000  45.9407100  87.9228290  29.3526690  47.0039390
  88.2937120  28.5694010  46.5975360  88.5630220  30.0415790  46.8256690
  84.9062050  30.7363270  52.4169710  84.0921890  31.1660430  52.6795500
  85.3136250  31.3481680  51.8038760  71.4548590  27.4067090  50.9308460
  71.8221630  27.3194490  51.8104480  70.8859410  26.6433640  50.8315320
  86.2552450  25.8751470  53.9438930  86.0238540  25.6464220  53.0436880
  86.5157000  26.7951020  53.8983820  71.0064590  24.3176180  54.8366880
  70.1120640  24.2842940  55.1760590  71.5462140  24.5162970  55.6018130
  84.6940520  21.1007900  56.7218630  85.5710700  21.1091300  57.1052630
  84.7061360  20.3638740  56.1110980  86.1403790  24.9537440  47.6106650
  86.6641270  24.4600090  46.9796820  86.7263210  25.0887800  48.3554220
  86.3193510  25.0377310  51.1326200  85.3696220  25.0040850  51.2471190
  86.5006520  25.9477420  50.8975970  71.5104300  18.5924510  49.1850100
  72.1580490  18.0421890  48.7445260  71.9306140  18.8467660  50.0065910
  87.0590920  22.8471740  46.0836740  86.9490200  22.6927780  47.0219010
  87.8198510  22.3192680  45.8412150  85.4056640  18.7865870  52.5419740
  86.0428860  19.4000010  52.9078930  85.5531530  18.8226530  51.5968970
  71.2636300  18.7480180  51.9275420  70.9151120  19.2044000  52.6933600
  70.9324000  17.8537310  52.0097850  72.8700670  31.9199780  56.0928610
  72.8270300  31.5492690  56.9743070  73.0011680  32.8577350  56.2330430
  76.5706700  33.4759370  51.6938330  76.3298060  33.7433930  50.8068850
  77.5109340  33.6465100  51.7489190  78.7761120  19.9392060  55.4494840
  78.7150010  20.5313890  56.1990250  79.7161500  19.8318020  55.3045100
  81.4135680  19.5962120  55.0887130  82.0276090  19.9141410  54.4268210
  81.9585240  19.1110710  55.7082990  87.8310860  35.4953750  52.4948970
  87.3369140  35.8922620  51.7776100  87.2224150  34.8702960  52.8886250
  71.9356940  18.2756380  55.2026190  72.4839930  18.0944430  54.4392300
  72.0012250  17.4850490  55.7382500  72.7088700  34.8662030  53.2126390
  72.1149020  34.7346730  53.9516430  72.7012540  34.0300170  52.7468490
  82.1543720  18.1594260  51.4156420  81.2803560  18.4929370  51.2129350
  82.0454470  17.6867440  52.2408290  83.0615700  20.3665130  52.7998140
  82.7329060  19.5516890  52.4199870  84.0098000  20.3234940  52.6763830
  72.3400930  32.2320410  52.1634430  71.6134990  31.6125700  52.0960380
  72.4010080  32.6261020  51.2932510  75.9446030  34.4465410  48.9483840
  76.4611050  33.8352770  48.4232100  76.5943410  34.9494190  49.4394850
  78.6841530  35.3373900  49.7752820  78.9719340  35.0828200  48.8985830
  79.1964750  34.7851260  50.3658390  79.9018540  19.0764100  50.3549330
  79.1190330  19.5509600  50.6346090  79.6081470  18.1718930  50.2462510
  84.4539610  19.7787200  48.3998420  84.8947700  19.7232300  47.5520020
  84.1847200  20.6945210  48.4708600  86.3178180  19.4102440  46.4107240
  86.2566580  18.4663660  46.2638260  87.0970210  19.5182530  46.9560700
  78.7513890  36.2590000  57.1421020  79.6781200  36.0234270  57.1856980
  78.7364320  37.0862000  56.6607050  75.9377500  18.9234750  56.9062900
  75.6561770  19.4268350  56.1423720  76.3197200  18.1256500  56.5405030
  82.5392960  18.3388330  57.4843370  82.4258410  18.6582940  58.3794890
  83.3562700  18.7400840  57.1880650  85.3191450  35.4859860  56.9662060
  86.1116770  34.9909090  56.7588020  85.6124600  36.1650000  57.5737670
  72.0026930  23.4081520  24.3905530  71.1143630  23.7497490  24.2885410
  72.2868120  23.2081840  23.4986360  74.1788320  21.9913020  25.4243910
  74.2855070  22.8916750  25.7312670  73.2680680  21.9430990  25.1338560
  80.0425210  23.1356010  22.0874830  79.1028880  23.2969970  22.1727290
  80.3608470  23.8541690  21.5410820  85.8435260  18.9188930  20.9156710
  85.5307920  19.0115760  21.8155780  86.6047730  19.4969960  20.8654140
  77.9439880  19.2494500  23.6363550  77.3194060  19.2454370  24.3616860
  77.8570000  18.3825460  23.2399520  69.4922080  19.9845080  29.3363100
  69.2035130  20.5547940  30.0488080  70.2367840  19.5049530  29.6994330
  69.6792310  23.9265200  20.5465820  69.5966980  24.8695960  20.6880810
  69.3275370  23.7840110  19.6678170  77.5410590  23.6616310  22.6042930
  77.6623410  23.6202790  23.5528750  77.1559100  24.5240460  22.4489660
  80.3177490  20.3578960  24.2108420  79.5042100  19.8592130  24.1353730
  80.1239440  21.1977210  23.7944770  70.1369560  26.6008650  21.4491750
  71.0064410  26.8833450  21.7327670  69.6459880  27.4144520  21.3340560
  73.2016150  18.3319510  26.0422550  73.0730780  18.3237410  26.9907470
  72.3778170  18.6702600  25.6913560  75.2329940  22.1260910  22.8526850
  76.0820470  22.5631060  22.7867040  74.8661210  22.4381170  23.6798910
  72.8268120  25.8118340  22.0095270  72.9071710  24.8645850  22.1212670
  73.7187870  26.1425220  22.1155930  78.6768030  27.3996010  20.5482120
  79.1973690  26.6845030  20.1823270  79.3236430  28.0381880  20.8482630
  75.0599290  24.4491630  20.2463180  74.8588350  23.5858990  20.6076520
  74.8891340  24.3624990  19.3084780  82.5387600  19.2599860  22.7750060
  82.8189890  18.4167760  23.1309480  81.7653330  19.4922970  23.2888810
  73.8582090  21.5492250  20.2341060  74.1607990  21.5559680  19.3260210
  74.5976680  21.1990110  20.7308720  77.0767020  20.4926870  21.2197260
  76.7289020  19.8150860  20.6399710  77.2779790  20.0316380  22.0340650
  69.6310740  24.2313450  23.5586960  68.7274820  24.4943650  23.3838620
  70.1151360  24.5024620  22.7786920  72.1737950  23.2878990  21.4681340
  72.8829650  22.8662210  20.9828620  71.4577890  23.3554220  20.8364690
  71.8212110  19.3418320  20.5083990  72.5440240  19.8827260  20.8265210
  72.0936630  19.0681740  19.6325530  87.9481190  20.6779660  20.5499390
  88.8730500  20.5460840  20.3417680  87.9256980  20.7572480  21.5035840
  88.0219680  21.4490320  23.1756100  87.2271180  21.3835440  23.7049010
  88.2262960  22.3840960  23.1641450  71.2458950  19.3811580  24.1019560
  72.0038310  19.4940460  23.5283590  70.7836120  20.2180780  24.0562990
  85.4332340  18.5614860  23.6045220  85.6282970  19.4598310  23.8712650
  84.6462210  18.3301940  24.0978170  73.6184100  19.9075630  22.6421530
  74.1476860  19.1205430  22.5129480  74.2512420  20.5866820  22.8757060
  75.8121940  19.6450770  25.6966920  75.1824680  18.9438080  25.8637050
  75.2727080  20.4054900  25.4800080  81.4451110  26.3580800   9.0734620
  81.3645160  25.4435410   8.8026330  81.0315530  26.8547870   8.3674330
  79.5769150  28.1359820  10.9543890  78.8011250  27.6560260  11.2442460
  80.2282080  27.4565470  10.7800050  73.5934980  28.4479630  11.8319650
  72.7619860  28.1928340  12.2316160  74.2015960  28.5190400  12.5677570
  83.5976580  32.5420010   9.7343020  83.1358110  31.7707250  10.0630190
  84.4102130  32.5686080  10.2395470  73.5736240  32.4819720  12.0277670
  73.8764280  31.5917460  11.8487890  74.3179830  33.0389940  11.7999920
  72.0026930  23.4081520   5.6162040  71.1143630  23.7497490   5.5141920
  72.2868120  23.2081840   4.7242870  69.9659940  26.0087170  11.5001740
  70.5376050  25.2409370  11.5005380  69.9661480  26.3075930  10.5908350
  79.8239890  34.8278020   9.3547010  79.2051330  35.2835520   8.7841450
  80.6791670  34.9829480   8.9536710  79.0178140  30.8117010  10.9614050
  78.9486420  29.8706950  10.8003180  79.7798000  30.9018420  11.5336620
  71.2084810  21.4171530  13.2870670  71.0287650  20.5197280  13.5673430
  70.8064890  21.9643400  13.9617620  80.0483310  23.6187390  11.1882980
  80.4248130  22.7459270  11.0756650  79.9502820  23.9546090  10.2973420
  74.1788320  21.9913020   6.6500420  74.2855070  22.8916750   6.9569180
  73.2680680  21.9430990   6.3595070  83.8307430  21.1137830   8.1211320
  84.6517050  20.6234400   8.1636800  83.8641510  21.7035490   8.8743160
  71.8271480  23.9132030  11.8953010  72.5081590  24.1770400  12.5140410
  71.5119530  23.0732900  12.2291020  76.0196050  24.9599390  10.9825600
  76.5274270  25.4580360  11.6230620  76.5509290  24.1834590  10.8064960
  88.1206980  23.1304580  14.6854950  87.4159150  23.5186290  14.1670060
  88.3864900  23.8254870  15.2875880  74.3032150  19.5997950  15.2489020
  74.3050590  20.1170340  14.4434920  73.4736460  19.1228130  15.2258950
  80.6903240  29.7117260   6.7478920  80.0720510  30.1766710   6.1841640
  81.2026490  30.4044740   7.1648430  75.5535000  29.2393130  13.4262520
  75.2204380  29.8662050  14.0683590  75.7301680  29.7655010  12.6464190
  84.0668910  23.0538210  10.8938860  83.3624480  23.3423100  11.4741970
  84.4281070  23.8638320  10.5338420  73.9847480  21.3107910  13.2559470
  74.3264290  22.1549960  12.9613340  73.0463290  21.4591650  13.3724810
  74.7654100  31.2073930  15.2411700  75.3828100  31.8825010  14.9596150
  73.9047220  31.6161910  15.1499200  70.0586440  30.3973790   4.1218550
  69.6814420  30.8860890   3.3903450  70.3159510  31.0699070   4.7525080
  87.1355830  22.4993000  11.2848070  86.1880740  22.5331980  11.4163500
  87.4605820  23.3131950  11.6697430  77.6675370  18.7990180   9.5804060
  77.9750350  18.2437070   8.8639560  76.7376070  18.9334640   9.3977050
  84.5135850  31.2373690   6.9601690  84.4032180  30.2948020   7.0851110
  84.5104100  31.5989330   7.8464450  80.0556130  26.8639010   6.3164180
  79.1285410  26.7976390   6.5452650  80.2080950  27.8019140   6.2019420
  80.0425210  23.1356010   3.3131340  79.1028880  23.2969970   3.3983800
  80.3608470  23.8541690   2.7667330  86.5637970  27.8174530  13.2910370
  85.7356600  27.8867620  12.8160500  87.1588450  28.4028840  12.8226200
  84.0853420  28.4259310   6.8199430  83.4665840  28.0878860   6.1725730
  84.0677870  27.7819070   7.5278620  83.5279980  24.6043850  14.2365240
  83.1151160  25.4297560  14.4905230  82.7955930  24.0188890  14.0441600
  75.6612770  27.3903750   9.0983910  75.2569770  26.6781000   8.6029810
  75.7475890  27.0456990   9.9871950  76.1294470  31.0771310  11.2623120
  75.8322760  30.4716780  10.5830900  77.0794290  31.1148620  11.1512480
  74.3741390  24.1646960  12.8782950  74.9255980  24.2742300  12.1036200
  74.8884900  24.5384560  13.5938180  75.2212900  30.8153000  17.9130920
  74.3241430  31.0392970  18.1604320  75.2465770  30.9387940  16.9642320
  82.2618120  27.6646120   3.8272180  82.7011400  26.8268550   3.6810000
  82.9746540  28.2975520   3.9136320  74.0484120  27.6866320  16.4888290
  73.9091890  28.5589120  16.8575690  73.1665480  27.3439130  16.3436230
  80.3713500  32.6042190   7.7953420  80.8109410  33.3466520   7.3808810
  80.3100390  32.8468760   8.7192380  75.8464470  33.6288020  18.6973440
  75.8179900  34.0330970  17.8301870  75.6829440  32.6998380  18.5345040
  85.8435260  18.9188930   2.1413220  85.5307920  19.0115760   3.0412290
  86.6047730  19.4969960   2.0910650  72.3617400  26.2848730   6.5990560
  72.2415000  27.0110820   5.9871830  72.0518290  25.5151640   6.1218470
  70.0002770  29.4563870  12.4059200  70.0783190  29.5912640  11.4614920
  70.6144450  28.7479760  12.5987320  71.2450400  31.1564060   8.8165380
  70.8378480  31.2978650   7.9618980  72.1363410  30.8724220   8.6136590
  83.0383680  35.5911310   5.1516430  82.8784820  35.3014250   6.0498260
  82.8730390  34.8151440   4.6161660  75.5172060  35.3709840   6.9288050
  75.3414540  34.4545380   6.7155850  74.6627800  35.7297130   7.1685850
  82.7409810  33.0998870   3.7114430  82.0474970  33.0976160   3.0516710
  83.4832670  32.6758190   3.2808600  82.3059740  34.7261580   7.7862920
  82.7616690  33.9450960   8.1001540  82.6452260  35.4368400   8.3304100
  87.0536550  23.6560430  18.1187360  86.4380820  24.1640100  17.5902820
  86.7332970  22.7558760  18.0613300  70.0562290  30.4978040  14.9453660
  70.2193330  30.0283400  14.1273030  70.5214740  29.9901600  15.6102500
  74.8281060  19.6283800   9.9814230  74.3849210  20.4093340   9.6498750
  75.3866050  19.9513690  10.6885170  79.1150870  22.4952320  15.5849550
  78.6530240  22.7035340  16.3969490  78.7128980  21.6811670  15.2820220
  84.1155380  23.7161270  16.7146210  83.2648970  23.4167020  17.0355280
  83.9557170  23.9603280  15.8030030  81.2105090  25.2163020  18.8145000
  81.5358500  24.3826770  18.4747230  81.9985420  25.7391540  18.9623330
  77.9439880  19.2494500   4.8620060  77.3194060  19.2454370   5.5873370
  77.8570000  18.3825460   4.4656030  76.8656960  20.1731130  11.8403830
  77.1629290  21.0793960  11.7595850  77.4142520  19.6849910  11.2263400
  74.6195280  24.7517370   7.7095480  74.3936200  24.5354540   8.6142100
  73.8387810  25.1845830   7.3641450  81.8493040  24.7580740   6.3086130
  81.2501930  25.4816540   6.1249750  82.3972650  24.6957520   5.5262580
  77.0594490  25.6502950  18.3755750  76.9638090  24.7097680  18.2256150
  77.9026470  25.8718020  17.9803820  80.4557910  23.3944280   8.3389410
  80.8487480  23.7116480   7.5258100  80.8174760  22.5156160   8.4533930
  72.1905030  22.0616620  16.5289530  71.7968420  22.9091830  16.7362310
  71.5023430  21.4242990  16.7198170  78.7650080  22.1451590  19.5986270
  78.0748400  21.9523790  20.2332360  79.5082380  22.4286230  20.1310570
  69.4922080  19.9845080  10.5619610  69.2035130  20.5547940  11.2744590
  70.2367840  19.5049530  10.9250840  81.0413050  25.9850030  12.4340190
  80.3094170  26.4936840  12.7830290  80.6437390  25.1680010  12.1328970
  77.4790440  22.6604230  10.8392680  77.4826500  22.2194180   9.9897220
  78.3741560  22.9821560  10.9464500  73.3292820  22.5430720   9.7986890
  72.9892870  23.0205950  10.5553940  72.5670140  22.0895840   9.4387990
  77.5410590  23.6616310   3.8299440  77.6623410  23.6202790   4.7785260
  77.1559100  24.5240460   3.6746170  81.5038960  21.4383710  11.8463130
  81.5211700  21.8892360  12.6904980  81.2554540  20.5389350  12.0596570
  76.5532090  25.9717450   3.2282740  75.9848990  25.5235700   2.6018650
  77.2621090  26.3310230   2.6947890  84.9309710  18.8515890  17.6849510
  85.2555480  18.1205550  18.2107490  84.9666220  18.5329530  16.7830500
  71.6301270  29.8729470  17.1049470  71.2456060  29.2323140  17.7032430
  71.9413460  30.5765590  17.6744200  77.7798410  26.7206010  12.5858090
  78.1468540  26.2464580  13.3319430  77.5903470  27.5947580  12.9266430
  70.6438900  21.4649700   8.7151560  70.3585820  21.1005370   9.5530180
  70.5817760  20.7330160   8.1014700  75.5697780  25.7614650  14.9042300
  75.2654850  26.6406630  15.1292660  76.5244240  25.8214440  14.9399740
  74.0979570  29.9675640   5.5009150  73.3241830  29.4273260   5.3407870
  74.8274200  29.4482250   5.1626910  84.8567550  28.9641000  11.2935540
  85.5766670  29.4596290  10.9031650  84.6549370  28.2858890  10.6489410
  80.3177490  20.3578960   5.4364930  79.5042100  19.8592130   5.3610240
  80.1239440  21.1977210   5.0201280  80.2386350  29.0350060  17.1804540
  80.1723660  28.1145730  16.9262130  79.6091490  29.1325500  17.8949180
  83.0325880  24.7298610   3.7327090  83.9205500  25.0415840   3.5578430
  83.0030970  23.8570860   3.3407670  74.1416970  29.6356020   9.1387960
  74.6595640  28.8324280   9.0844850  73.6900990  29.5735160   9.9804790
  79.0286470  30.9022300   4.4115260  79.3702170  31.6464530   3.9158580
  78.1999180  31.2153420   4.7740090  71.6261510  26.6017390  16.0513660
  71.2676450  27.2671240  16.6387000  71.3316070  25.7700940  16.4226280
  74.8274630  27.0601630  18.9353210  74.5274770  27.2058810  18.0381030
  75.5985870  26.5006920  18.8426600  85.3040150  26.0410450   3.2006950
  85.2203870  26.4724670   2.3503390  86.0234340  26.5008800   3.6333770
  86.3814290  28.4977970  16.2776920  85.6562480  29.0906750  16.0806310
  86.9089750  28.4901510  15.4790290  86.3327400  32.8952710   5.9289080
  85.6903560  32.2408330   6.2032800  85.9458060  33.3007800   5.1529750
  81.9113880  30.2238140   9.7760770  82.2637700  29.6266270   9.1162140
  81.0276210  29.8982370   9.9469020  77.9977160  30.9835830   7.1831180
  78.6848290  31.5305040   7.5638770  77.2109580  31.5276560   7.2180790
  70.1369560  26.6008650   2.6748260  71.0064410  26.8833450   2.9584180
  69.6459880  27.4144520   2.5597070  77.3004370  27.9881860   6.7956540
  77.7567150  28.7987110   7.0216730  76.9492580  27.6705000   7.6275030
  73.2016150  18.3319510   7.2679060  73.0730780  18.3237410   8.2163980
  72.3778170  18.6702600   6.9170070  84.7224780  31.7869170   2.4665430
  84.4962360  31.0699610   3.0590070  84.3320980  31.5381610   1.6287180
  70.5040810  35.8136030   3.2409890  70.8638450  36.4125370   2.5867160
  70.3633150  36.3595920   4.0144920  70.2010080  20.0910630  16.7285760
  69.4868600  20.2907550  17.3338370  70.6205120  19.3150200  17.1000560
  84.3041030  29.7041110   4.1279590  84.0162730  30.1653800   4.9157470
  85.0993200  29.2438880   4.3963810  70.4882670  34.0790890  17.7152290
  70.5973790  33.1385630  17.5747680  69.8363230  34.3445640  17.0666020
  76.5209430  33.1967230   4.0583560  76.5119530  33.9296920   3.4428070
  75.6007790  32.9498810   4.1510520  72.1216070  28.4182120   4.8030320
  71.5144020  29.1581020   4.8125620  72.5965420  28.5081480   3.9768520
  81.6948860  22.5832940  14.4787210  82.0629680  21.7628150  14.8066780
  80.8347060  22.6434830  14.8942860  85.0610890  21.5389880   5.2874770
  84.4324050  21.6435550   4.5733000  84.5662810  21.7586660   6.0768650
  79.5069030  33.2595470   2.7208750  79.6081010  33.0559460   1.7910730
  78.6070770  33.0053750   2.9256530  77.0294920  23.8175830   6.7032650
  76.3211070  24.2862170   7.1446260  77.3139400  23.1597840   7.3377840
  78.6550850  25.2372530  14.7025180  79.1536100  25.7118350  15.3677030
  78.7973800  24.3136050  14.9095210  81.0610350  20.5426490   8.1428440
  80.9378130  20.5612620   7.1937950  82.0094910  20.5905430   8.2626840
  78.1487140  35.7781790   7.4156420  78.4028640  35.7403180   6.4935790
  77.1999620  35.6515120   7.4084670  75.2329940  22.1260910   4.0783360
  76.0820470  22.5631060   4.0123550  74.8661210  22.4381170   4.9055420
  85.8617710  21.4540490  15.5453570  85.3591310  22.1945890  15.8847380
  86.6774370  21.8424490  15.2290360  84.1539720  26.6973670   8.9914930
  83.2129860  26.7123900   9.1662620  84.4683790  25.9109630   9.4375230
  74.1321360  28.3793270   2.5518890  74.8984630  28.2674630   3.1144320
  74.2096050  27.6831240   1.8995660  72.8268120  25.8118340   3.2351780
  72.9071710  24.8645850   3.3469180  73.7187870  26.1425220   3.3412440
  86.1565300  33.8682520  10.6669190  86.2812720  34.6913690  11.1393000
  87.0230860  33.6573250  10.3193340  73.6282830  35.9613730  10.3386320
  74.3645310  35.4129190  10.6094890  74.0123750  36.8269740  10.1992310
  70.5128310  32.0287300   6.2127830  69.5868090  32.2708440   6.2033240
  70.9784740  32.8561560   6.0912580  76.7385140  35.1344040   2.1611890
  77.5313750  35.4232870   1.7093680  76.2189490  34.7036210   1.4824370
  85.7915310  34.3614170   3.5848630  85.5056820  33.9479310   2.7702810
  85.5934860  35.2901880   3.4649150  70.3538920  27.6333260  18.4707950
  70.8577940  27.0540540  19.0424180  69.6146340  27.9173490  19.0084320
  77.4076860  29.0404250  18.0043470  76.6422530  29.6089250  17.9198140
  77.5892820  28.7480460  17.1111700  80.4965270  29.4167480   2.6296230
  79.9475370  29.8636780   3.2738970  81.1184530  28.9116730   3.1533900
  72.3862000  25.7762850  19.3658020  72.4267340  25.4776720  20.2743250
  73.2407500  26.1770460  19.2065540  76.1640390  28.3758400   4.5261530
  76.5856810  28.2098270   5.3692920  76.2891230  27.5658630   4.0316670
  74.3267810  24.3554950  17.3332510  73.7964270  23.8645900  16.7055850
  74.9955880  24.7839150  16.7990440  83.2245870  28.8224410  17.0973700
  83.6386890  28.9769490  17.9464120  82.2896870  28.9479630  17.2599480
  83.6968040  26.1620570  19.1012850  84.2788810  25.4072890  19.0133330
  83.8729810  26.6928010  18.3244330  74.8140110  21.3217320  17.4129800
  74.7196980  20.7038070  16.6880670  74.2337500  22.0483610  17.1859710
  77.5801550  19.8790560  14.4457190  77.1318850  19.9014820  13.6002740
  76.9466750  19.4809580  15.0427490  77.9861100  28.7744890  15.0669630
  78.4049210  29.6177620  14.8945870  77.0669730  28.9116930  14.8376410
  80.3225000  26.5061070  16.4507470  80.4421210  25.9102210  17.1902310
  81.1819000  26.5430760  16.0308770  82.6612900  27.0598260  15.0269980
  82.1348120  27.5840880  14.4235120  83.0044240  27.6925650  15.6579710
  77.0893770  23.0482420  17.7083290  77.6793460  22.7398270  18.3961110
  76.2714010  22.5762170  17.8643190  81.9087200  22.6648230  17.9416310
  81.2202720  22.0029770  17.8766300  82.6293220  22.2186500  18.3864770
  82.5387600  19.2599860   4.0006570  82.8189890  18.4167760   4.3565990
  81.7653330  19.4922970   4.5145320  77.0767020  20.4926870   2.4453770
  76.7289020  19.8150860   1.8656220  77.2779790  20.0316380   3.2597160
  79.2416060  35.4807620   4.0640370  80.1366850  35.8192590   4.0859130
  79.2733690  34.7587030   3.4364650  72.8812220  30.8534670   2.2927370
  73.3187090  31.3964340   2.9484950  73.3659950  30.0281620   2.3023710
  70.0958020  33.6423700   9.7447630  70.4261030  32.7744760   9.5126270
  70.5249020  33.8482220  10.5752590  74.6919940  31.9732710   7.4049600
  74.3915480  31.8497680   8.3053510  74.5857430  31.1141300   6.9965330
  70.5848230  34.5094290  12.4829260  70.1479220  34.6895090  13.3153410
  71.1525910  35.2668910  12.3410980  87.4611860  31.7529110   2.1076280
  86.6304820  31.8205760   2.5783510  87.6383690  32.6433230   1.8043140
  86.9168320  28.4976590   4.6110480  87.6787230  29.0673240   4.7170170
  86.9322690  27.9303790   5.3818790  70.4172660  27.0214520   8.8418140
  69.7621500  26.7526160   8.1977840  71.2550610  26.9119000   8.3920120
  87.9228290  29.3526690   9.4552410  88.2937120  28.5694010   9.0488380
  88.5630220  30.0415790   9.2769710  86.9687490  28.7910960   1.7683000
  87.2436330  29.6989840   1.6402220  86.7798230  28.7273490   2.7044990
  83.3663100  21.8155810   3.0636630  83.7847980  21.6286790   2.2233290
  83.0599160  20.9634860   3.3739560  86.8652830  26.7279950   6.7612430
  86.4896430  25.9607880   6.3293720  86.1355950  27.1102650   7.2487360
  71.4548590  27.4067090  13.3821480  71.8221630  27.3194490  14.2617500
  70.8859410  26.6433640  13.2828340  86.2552450  25.8751470  16.3951950
  86.0238540  25.6464220  15.4949900  86.5157000  26.7951020  16.3496840
  71.0064590  24.3176180  17.2879900  70.1120640  24.2842940  17.6273610
  71.5462140  24.5162970  18.0531150  84.6940520  21.1007900  19.1731650
  85.5710700  21.1091300  19.5565650  84.7061360  20.3638740  18.5624000
  69.6310740  24.2313450   4.7843470  68.7274820  24.4943650   4.6095130
  70.1151360  24.5024620   4.0043430  86.1403790  24.9537440  10.0619670
  86.6641270  24.4600090   9.4309840  86.7263210  25.0887800  10.8067240
  86.3193510  25.0377310  13.5839220  85.3696220  25.0040850  13.6984210
  86.5006520  25.9477420  13.3488990  72.1737950  23.2878990   2.6937850
  72.8829650  22.8662210   2.2085130  71.4577890  23.3554220   2.0621200
  85.6303760  24.2110790   6.0012080  86.1262880  23.9781660   6.7860960
  85.4319830  23.3722630   5.5849720  71.5104300  18.5924510  11.6363120
  72.1580490  18.0421890  11.1958280  71.9306140  18.8467660  12.4578930
  87.0590920  22.8471740   8.5349760  86.9490200  22.6927780   9.4732030
  87.8198510  22.3192680   8.2925170  85.4056640  18.7865870  14.9932760
  86.0428860  19.4000010  15.3591950  85.5531530  18.8226530  14.0481990
  87.9481190  20.6779660   1.7755900  88.8730500  20.5460840   1.5674190
  87.9256980  20.7572480   2.7292350  88.0219680  21.4490320   4.4012610
  87.2271180  21.3835440   4.9305520  88.2262960  22.3840960   4.3897960
  84.9638100  35.4881870   8.3951000  85.5597170  35.1666440   7.7185420
  85.2216250  35.0153690   9.1864270  71.2636300  18.7480180  14.3788440
  70.9151120  19.2044000  15.1446620  70.9324000  17.8537310  14.4610870
  72.8700670  31.9199780  18.5441630  72.8270300  31.5492690  19.4256090
  73.0011680  32.8577350  18.6843450  78.7761120  19.9392060  17.9007860
  78.7150010  20.5313890  18.6503270  79.7161500  19.8318020  17.7558120
  81.4135680  19.5962120  17.5400150  82.0276090  19.9141410  16.8781230
  81.9585240  19.1110710  18.1596010  71.9356940  18.2756380  17.6539210
  72.4839930  18.0944430  16.8905320  72.0012250  17.4850490  18.1895520
  72.7088700  34.8662030  15.6639410  72.1149020  34.7346730  16.4029450
  72.7012540  34.0300170  15.1981510  82.1543720  18.1594260  13.8669440
  81.2803560  18.4929370  13.6642370  82.0454470  17.6867440  14.6921310
  83.0615700  20.3665130  15.2511160  82.7329060  19.5516890  14.8712890
  84.0098000  20.3234940  15.1276850  72.3400930  32.2320410  14.6147450
  71.6134990  31.6125700  14.5473400  72.4010080  32.6261020  13.7445530
  79.9018540  19.0764100  12.8062350  79.1190330  19.5509600  13.0859110
  79.6081470  18.1718930  12.6975530  84.4539610  19.7787200  10.8511440
  84.8947700  19.7232300  10.0033040  84.1847200  20.6945210  10.9221620
  86.3178180  19.4102440   8.8620260  86.2566580  18.4663660   8.7151280
  87.0970210  19.5182530   9.4073720  70.6230930  35.5494800   7.8244210
  70.4552970  34.9165480   8.5226100  69.7565440  35.7554200   7.4738400
  71.2458950  19.3811580   5.3276070  72.0038310  19.4940460   4.7540100
  70.7836120  20.2180780   5.2819500  77.7872760  21.4950850   8.3178380
  76.9747270  21.1207740   7.9774260  78.2914400  20.7395930   8.6199570
  82.2897740  18.1593300   9.5561450  82.8927110  18.7313510  10.0309970
  81.5490730  18.7232740   9.3335350  85.4332340  18.5614860   4.8301730
  85.6282970  19.4598310   5.0969160  84.6462210  18.3301940   5.3234680
  72.2293630  34.2428030   5.2694350  71.7041250  34.6236060   4.5656310
  72.1538210  34.8678800   5.9904060  73.6184100  19.9075630   3.8678040
  74.1476860  19.1205430   3.7385990  74.2512420  20.5866820   4.1013570
  75.8121940  19.6450770   6.9223430  75.1824680  18.9438080   7.0893560
  75.2727080  20.4054900   6.7056590  86.9858950  35.8015570   6.5908290
  87.1611140  35.1153310   5.9469210  86.2880520  36.3262620   6.1984960
  75.9377500  18.9234750  19.3575920  75.6561770  19.4268350  18.5936740
  76.3197200  18.1256500  18.9918050  74.8286600  36.1910410   4.1443600
  75.5605420  35.9069690   3.5967490  75.0880270  35.9523690   5.0342980
  73.9901390  32.3075140   4.1489930  73.3610270  32.7760240   4.6975760
  74.1049220  31.4624360   4.5836120  82.5392960  18.3388330  19.9356390
  82.4258410  18.6582940  20.8307910  83.3562700  18.7400840  19.6393670
  81.4451110   7.5837310  65.3965090  81.3645160   6.6691920  65.1256800
  81.0315530   8.0804380  64.6904800  79.5769150   9.3616330  67.2774360
  78.8011250   8.8816770  67.5672930  80.2282080   8.6821980  67.1030520
  73.5934980   9.6736140  68.1550120  72.7619860   9.4184850  68.5546630
  74.2015960   9.7446910  68.8908040  83.5976580  13.7676520  66.0573490
  83.1358110  12.9963760  66.3860660  84.4102130  13.7942590  66.5625940
  73.5736240  13.7076230  68.3508140  73.8764280  12.8173970  68.1718360
  74.3179830  14.2646450  68.1230390  72.0026930   4.6338030  61.9392510
  71.1143630   4.9754000  61.8372390  72.2868120   4.4338350  61.0473340
  69.9659940   7.2343680  67.8232210  70.5376050   6.4665880  67.8235850
  69.9661480   7.5332440  66.9138820  79.8239890  16.0534530  65.6777480
  79.2051330  16.5092030  65.1071920  80.6791670  16.2085990  65.2767180
  79.0178140  12.0373520  67.2844520  78.9486420  11.0963460  67.1233650
  79.7798000  12.1274930  67.8567090  71.2084810   2.6428040  69.6101140
  71.0287650   1.7453790  69.8903900  70.8064890   3.1899910  70.2848090
  80.0483310   4.8443900  67.5113450  80.4248130   3.9715780  67.3987120
  79.9502820   5.1802600  66.6203890  74.1788320   3.2169530  62.9730890
  74.2855070   4.1173260  63.2799650  73.2680680   3.1687500  62.6825540
  83.8307430   2.3394340  64.4441790  84.6517050   1.8490910  64.4867270
  83.8641510   2.9292000  65.1973630  71.8271480   5.1388540  68.2183480
  72.5081590   5.4026910  68.8370880  71.5119530   4.2989410  68.5521490
  76.0196050   6.1855900  67.3056070  76.5274270   6.6836870  67.9461090
  76.5509290   5.4091100  67.1295430  88.1206980   4.3561090  71.0085420
  87.4159150   4.7442800  70.4900530  88.3864900   5.0511380  71.6106350
  80.6903240  10.9373770  63.0709390  80.0720510  11.4023220  62.5072110
  81.2026490  11.6301250  63.4878900  75.5535000  10.4649640  69.7492990
  75.2204380  11.0918560  70.3914060  75.7301680  10.9911520  68.9694660
  84.0668910   4.2794720  67.2169330  83.3624480   4.5679610  67.7972440
  84.4281070   5.0894830  66.8568890  73.9847480   2.5364420  69.5789940
  74.3264290   3.3806470  69.2843810  73.0463290   2.6848160  69.6955280
  74.7654100  12.4330440  71.5642170  75.3828100  13.1081520  71.2826620
  73.9047220  12.8418420  71.4729670  70.0586440  11.6230300  60.4449020
  69.6814420  12.1117400  59.7133920  70.3159510  12.2955580  61.0755550
  85.6831690  13.8969850  69.4796810  84.9995210  14.5668960  69.4713480
  86.2225980  14.0950500  68.7141670  87.1355830   3.7249510  67.6078540
  86.1880740   3.7588490  67.7393970  87.4605820   4.5388460  67.9927900
  83.2190430  15.7413980  68.1941990  83.2317590  15.3376270  67.3264250
  82.6665650  16.5161270  68.0903420  84.5135850  12.4630200  63.2832160
  84.4032180  11.5204530  63.4081580  84.5104100  12.8245840  64.1694920
  82.6175870  10.6443820  69.5224600  83.0344660  10.4303930  68.6878060
  83.3415690  10.9016610  70.0933220  80.0556130   8.0895520  62.6394650
  79.1285410   8.0232900  62.8683120  80.2080950   9.0275650  62.5249890
  80.0425210   4.3612520  59.6361810  79.1028880   4.5226480  59.7214270
  80.3608470   5.0798200  59.0897800  86.5637970   9.0431040  69.6140840
  85.7356600   9.1124130  69.1390970  87.1588450   9.6285350  69.1456670
  84.0853420   9.6515820  63.1429900  83.4665840   9.3135370  62.4956200
  84.0677870   9.0075580  63.8509090  83.5279980   5.8300360  70.5595710
  83.1151160   6.6554070  70.8135700  82.7955930   5.2445400  70.3672070
  75.6612770   8.6160260  65.4214380  75.2569770   7.9037510  64.9260280
  75.7475890   8.2713500  66.3102420  76.1294470  12.3027820  67.5853590
  75.8322760  11.6973290  66.9061370  77.0794290  12.3405130  67.4742950
  74.3741390   5.3903470  69.2013420  74.9255980   5.4998810  68.4266670
  74.8884900   5.7641070  69.9168650  84.2180080  15.8759690  71.2476690
  83.7410640  16.6831880  71.0549300  83.5341870  15.2238020  71.4002900
  75.2212900  12.0409510  74.2361390  74.3241430  12.2649480  74.4834790
  75.2465770  12.1644450  73.2872790  82.2618120   8.8902630  60.1502650
  82.7011400   8.0525060  60.0040470  82.9746540   9.5232030  60.2366790
  74.0484120   8.9122830  72.8118760  73.9091890   9.7845630  73.1806160
  73.1665480   8.5695640  72.6666700  80.3713500  13.8298700  64.1183890
  80.8109410  14.5723030  63.7039280  80.3100390  14.0725270  65.0422850
  75.8464470  14.8544530  75.0203910  75.8179900  15.2587480  74.1532340
  75.6829440  13.9254890  74.8575510  72.3617400   7.5105240  62.9221030
  72.2415000   8.2367330  62.3102300  72.0518290   6.7408150  62.4448940
  70.0002770  10.6820380  68.7289670  70.0783190  10.8169150  67.7845390
  70.6144450   9.9736270  68.9217790  71.2450400  12.3820570  65.1395850
  70.8378480  12.5235160  64.2849450  72.1363410  12.0980730  64.9367060
  87.2012540  12.8284480  73.4768090  87.3275600  12.5896360  72.5585270
  87.2433920  11.9969020  73.9490170  81.0629280  16.5312480  72.0462900
  81.5773950  16.4420490  72.8485330  80.2198360  16.8772180  72.3390810
  83.0383680  16.8167820  61.4746900  82.8784820  16.5270760  62.3728730
  82.8730390  16.0407950  60.9392130  75.5172060  16.5966350  63.2518520
  75.3414540  15.6801890  63.0386320  74.6627800  16.9553640  63.4916320
  82.7409810  14.3255380  60.0344900  82.0474970  14.3232670  59.3747180
  83.4832670  13.9014700  59.6039070  82.3059740  15.9518090  64.1093390
  82.7616690  15.1707470  64.4232010  82.6452260  16.6624910  64.6534570
  87.0536550   4.8816940  74.4417830  86.4380820   5.3896610  73.9133290
  86.7332970   3.9815270  74.3843770  70.0562290  11.7234550  71.2684130
  70.2193330  11.2539910  70.4503500  70.5214740  11.2158110  71.9332970
  79.1150870   3.7208830  71.9080020  78.6530240   3.9291850  72.7199960
  78.7128980   2.9068180  71.6050690  84.1155380   4.9417780  73.0376680
  83.2648970   4.6423530  73.3585750  83.9557170   5.1859790  72.1260500
  81.2105090   6.4419530  75.1375470  81.5358500   5.6083280  74.7977700
  81.9985420   6.9648050  75.2853800  74.6195280   5.9773880  64.0325950
  74.3936200   5.7611050  64.9372570  73.8387810   6.4102340  63.6871920
  81.8493040   5.9837250  62.6316600  81.2501930   6.7073050  62.4480220
  82.3972650   5.9214030  61.8493050  77.0594490   6.8759460  74.6986220
  76.9638090   5.9354190  74.5486620  77.9026470   7.0974530  74.3034290
  80.4557910   4.6200790  64.6619880  80.8487480   4.9372990  63.8488570
  80.8174760   3.7412670  64.7764400  72.1905030   3.2873130  72.8520000
  71.7968420   4.1348340  73.0592780  71.5023430   2.6499500  73.0428640
  69.6792310   5.1521710  58.0952800  69.5966980   6.0952470  58.2367790
  69.3275370   5.0096620  57.2165150  81.0413050   7.2106540  68.7570660
  80.3094170   7.7193350  69.1060760  80.6437390   6.3936520  68.4559440
  77.4790440   3.8860740  67.1623150  77.4826500   3.4450690  66.3127690
  78.3741560   4.2078070  67.2694970  73.3292820   3.7687230  66.1217360
  72.9892870   4.2462460  66.8784410  72.5670140   3.3152350  65.7618460
  77.5410590   4.8872820  60.1529910  77.6623410   4.8459300  61.1015730
  77.1559100   5.7496970  59.9976640  81.5038960   2.6640220  68.1693600
  81.5211700   3.1148870  69.0135450  81.2554540   1.7645860  68.3827040
  76.5532090   7.1973960  59.5513210  75.9848990   6.7492210  58.9249120
  77.2621090   7.5566740  59.0178360  71.6301270  11.0985980  73.4279940
  71.2456060  10.4579650  74.0262900  71.9413460  11.8022100  73.9974670
  77.7798410   7.9462520  68.9088560  78.1468540   7.4721090  69.6549900
  77.5903470   8.8204090  69.2496900  70.6438900   2.6906210  65.0382030
  70.3585820   2.3261880  65.8760650  70.5817760   1.9586670  64.4245170
  75.5697780   6.9871160  71.2272770  75.2654850   7.8663140  71.4523130
  76.5244240   7.0470950  71.2630210  74.0979570  11.1932150  61.8239620
  73.3241830  10.6529770  61.6638340  74.8274200  10.6738760  61.4857380
  84.8567550  10.1897510  67.6166010  85.5766670  10.6852800  67.2262120
  84.6549370   9.5115400  66.9719880  80.2386350  10.2606570  73.5035010
  80.1723660   9.3402240  73.2492600  79.6091490  10.3582010  74.2179650
  83.0325880   5.9555120  60.0557560  83.9205500   6.2672350  59.8808900
  83.0030970   5.0827370  59.6638140  74.1416970  10.8612530  65.4618430
  74.6595640  10.0580790  65.4075320  73.6900990  10.7991670  66.3035260
  79.0286470  12.1278810  60.7345730  79.3702170  12.8721040  60.2389050
  78.1999180  12.4409930  61.0970560  71.6261510   7.8273900  72.3744130
  71.2676450   8.4927750  72.9617470  71.3316070   6.9957450  72.7456750
  74.8274630   8.2858140  75.2583680  74.5274770   8.4315320  74.3611500
  75.5985870   7.7263430  75.1657070  80.1703080  13.0827140  73.2538810
  80.1847620  12.1508100  73.0357720  79.4628180  13.1686900  73.8928580
  85.3040150   7.2666960  59.5237420  85.2203870   7.6981180  58.6733860
  86.0234340   7.7265310  59.9564240  86.3814290   9.7234480  72.6007390
  85.6562480  10.3163260  72.4036780  86.9089750   9.7158020  71.8020760
  86.3327400  14.1209220  62.2519550  85.6903560  13.4664840  62.5263270
  85.9458060  14.5264310  61.4760220  81.9113880  11.4494650  66.0991240
  82.2637700  10.8522780  65.4392610  81.0276210  11.1238880  66.2699490
  77.9977160  12.2092340  63.5061650  78.6848290  12.7561550  63.8869240
  77.2109580  12.7533070  63.5411260  70.1369560   7.8265160  58.9978730
  71.0064410   8.1089960  59.2814650  69.6459880   8.6401030  58.8827540
  77.3004370   9.2138370  63.1187010  77.7567150  10.0243620  63.3447200
  76.9492580   8.8961510  63.9505500  79.6036980  14.7244710  70.3479310
  80.2479200  14.9304090  71.0252730  79.9666420  13.9633110  69.8950160
  80.8769060  12.7277060  69.0656760  81.5191290  12.0270220  69.1788930
  81.4018410  13.5075500  68.8853650  84.7224780  13.0125680  58.7895900
  84.4962360  12.2956120  59.3820540  84.3320980  12.7638120  57.9517650
  82.6506680  13.5271960  72.2692820  82.9862920  14.1138650  72.9470740
  81.7307020  13.3964670  72.4990610  70.5040810  17.0392540  59.5640360
  70.8638450  17.6381880  58.9097630  70.3633150  17.5852430  60.3375390
  84.3041030  10.9297620  60.4510060  84.0162730  11.3910310  61.2387940
  85.0993200  10.4695390  60.7194280  70.4882670  15.3047400  74.0382760
  70.5973790  14.3642140  73.8978150  69.8363230  15.5702150  73.3896490
  78.4795260  13.5763290  75.4380880  78.1592130  12.8572530  75.9826570
  77.8053620  14.2518360  75.5116940  76.5209430  14.4223740  60.3814030
  76.5119530  15.1553430  59.7658540  75.6007790  14.1755320  60.4740990
  72.1216070   9.6438630  61.1260790  71.5144020  10.3837530  61.1356090
  72.5965420   9.7337990  60.2998990  81.6948860   3.8089450  70.8017680
  82.0629680   2.9884660  71.1297250  80.8347060   3.8691340  71.2173330
  85.0610890   2.7646390  61.6105240  84.4324050   2.8692060  60.8963470
  84.5662810   2.9843170  62.3999120  79.5069030  14.4851980  59.0439220
  79.6081010  14.2815970  58.1141200  78.6070770  14.2310260  59.2487000
  77.0294920   5.0432340  63.0263120  76.3211070   5.5118680  63.4676730
  77.3139400   4.3854350  63.6608310  78.6550850   6.4629040  71.0255650
  79.1536100   6.9374860  71.6907500  78.7973800   5.5392560  71.2325680
  81.0610350   1.7683000  64.4658910  80.9378130   1.7869130  63.5168420
  82.0094910   1.8161940  64.5857310  78.1487140  17.0038300  63.7386890
  78.4028640  16.9659690  62.8166260  77.1999620  16.8771630  63.7315140
  75.2329940   3.3517420  60.4013830  76.0820470   3.7887570  60.3354020
  74.8661210   3.6637680  61.2285890  85.8617710   2.6797000  71.8684040
  85.3591310   3.4202400  72.2077850  86.6774370   3.0681000  71.5520830
  84.1539720   7.9230180  65.3145400  83.2129860   7.9380410  65.4893090
  84.4683790   7.1366140  65.7605700  74.1321360   9.6049780  58.8749360
  74.8984630   9.4931140  59.4374790  74.2096050   8.9087750  58.2226130
  72.8268120   7.0374850  59.5582250  72.9071710   6.0902360  59.6699650
  73.7187870   7.3681730  59.6642910  86.1565300  15.0939030  66.9899660
  86.2812720  15.9170200  67.4623470  87.0230860  14.8829760  66.6423810
  73.6282830  17.1870240  66.6616790  74.3645310  16.6385700  66.9325360
  74.0123750  18.0526250  66.5222780  70.5128310  13.2543810  62.5358300
  69.5868090  13.4964950  62.5263710  70.9784740  14.0818070  62.4143050
  76.7385140  16.3600550  58.4842360  77.5313750  16.6489380  58.0324150
  76.2189490  15.9292720  57.8054840  82.9006110  16.2076470  74.4087190
  83.8527860  16.1234490  74.3587430  82.7534330  16.8718180  75.0820980
  85.7915310  15.5870680  59.9079100  85.5056820  15.1735820  59.0933280
  85.5934860  16.5158390  59.7879620  70.3538920   8.8589770  74.7938420
  70.8577940   8.2797050  75.3654650  69.6146340   9.1430000  75.3314790
  77.2562540  11.5803960  58.3484710  77.1513180  10.9656310  59.0746090
  77.0886760  11.0569850  57.5647720  77.4076860  10.2660760  74.3273940
  76.6422530  10.8345760  74.2428610  77.5892820   9.9736970  73.4342170
  80.4965270  10.6423990  58.9526700  79.9475370  11.0893290  59.5969440
  81.1184530  10.1373240  59.4764370  84.5500210  11.9966090  74.8848960
  85.2909680  12.3341850  74.3816420  83.7872890  12.1658150  74.3318730
  76.1640390   9.6014910  60.8492000  76.5856810   9.4354780  61.6923390
  76.2891230   8.7915140  60.3547140  74.3267810   5.5811460  73.6562980
  73.7964270   5.0902410  73.0286320  74.9955880   6.0095660  73.1220910
  78.6768030   8.6252520  58.0969100  79.1973690   7.9101540  57.7310250
  79.3236430   9.2638390  58.3969610  83.2245870  10.0480920  73.4204170
  83.6386890  10.2026000  74.2694590  82.2896870  10.1736140  73.5829950
  83.6968040   7.3877080  75.4243320  84.2788810   6.6329400  75.3363800
  83.8729810   7.9184520  74.6474800  74.8140110   2.5473830  73.7360270
  74.7196980   1.9294580  73.0111140  74.2337500   3.2740120  73.5090180
  77.9861100  10.0001400  71.3900100  78.4049210  10.8434130  71.2176340
  77.0669730  10.1373440  71.1606880  80.3225000   7.7317580  72.7737940
  80.4421210   7.1358720  73.5132780  81.1819000   7.7687270  72.3539240
  82.6612900   8.2854770  71.3500450  82.1348120   8.8097390  70.7465590
  83.0044240   8.9182160  71.9810180  75.0599290   5.6748140  57.7950160
  74.8588350   4.8115500  58.1563500  74.8891340   5.5881500  56.8571760
  75.8368520  16.3054410  72.5057830  75.2989610  17.0300470  72.1866530
  76.0902480  15.8284750  71.7155170  77.0893770   4.2738930  74.0313760
  77.6793460   3.9654780  74.7191580  76.2714010   3.8018680  74.1873660
  81.9087200   3.8904740  74.2646780  81.2202720   3.2286280  74.1996770
  82.6293220   3.4443010  74.7095240  73.8582090   2.7748760  57.7828040
  74.1607990   2.7816190  56.8747190  74.5976680   2.4246620  58.2795700
  78.6930730  17.5405620  72.7644480  78.6189430  18.4440760  73.0716850
  77.7909570  17.2217520  72.7366550  79.2416060  16.7064130  60.3870840
  80.1366850  17.0449100  60.4089600  79.2733690  15.9843540  59.7595120
  72.8812220  12.0791180  58.6157840  73.3187090  12.6220850  59.2715420
  73.3659950  11.2538130  58.6254180  70.0958020  14.8680210  66.0678100
  70.4261030  14.0001270  65.8356740  70.5249020  15.0738730  66.8983060
  74.6919940  13.1989220  63.7280070  74.3915480  13.0754190  64.6283980
  74.5857430  12.3397810  63.3195800  70.5848230  15.7350800  68.8059730
  70.1479220  15.9151600  69.6383880  71.1525910  16.4925420  68.6641450
  86.2210410  15.2367800  73.0937040  85.6212400  15.2960360  72.3500960
  86.3504310  14.2972780  73.2233890  87.4611860  12.9785620  58.4306750
  86.6304820  13.0462270  58.9013980  87.6383690  13.8689740  58.1273610
  86.9168320   9.7233100  60.9340950  87.6787230  10.2929750  61.0400640
  86.9322690   9.1560300  61.7049260  70.4172660   8.2471030  65.1648610
  69.7621500   7.9782670  64.5208310  71.2550610   8.1375510  64.7150590
  87.9228290  10.5783200  65.7782880  88.2937120   9.7950520  65.3718850
  88.5630220  11.2672300  65.6000180  84.9062050  11.9619780  71.1913200
  84.0921890  12.3916940  71.4538990  85.3136250  12.5738190  70.5782250
  86.9687490  10.0167470  58.0913470  87.2436330  10.9246350  57.9632690
  86.7798230   9.9530000  59.0275460  83.3663100   3.0412320  59.3867100
  83.7847980   2.8543300  58.5463760  83.0599160   2.1891370  59.6970030
  86.8652830   7.9536460  63.0842900  86.4896430   7.1864390  62.6524190
  86.1355950   8.3359160  63.5717830  71.4548590   8.6323600  69.7051950
  71.8221630   8.5451000  70.5847970  70.8859410   7.8690150  69.6058810
  86.2552450   7.1007980  72.7182420  86.0238540   6.8720730  71.8180370
  86.5157000   8.0207530  72.6727310  71.0064590   5.5432690  73.6110370
  70.1120640   5.5099450  73.9504080  71.5462140   5.7419480  74.3761620
  84.6940520   2.3264410  75.4962120  85.5710700   2.3347810  75.8796120
  84.7061360   1.5895250  74.8854470  69.6310740   5.4569960  61.1073940
  68.7274820   5.7200160  60.9325600  70.1151360   5.7281130  60.3273900
  86.1403790   6.1793950  66.3850140  86.6641270   5.6856600  65.7540310
  86.7263210   6.3144310  67.1297710  86.3193510   6.2633820  69.9069690
  85.3696220   6.2297360  70.0214680  86.5006520   7.1733930  69.6719460
  72.1737950   4.5135500  59.0168320  72.8829650   4.0918720  58.5315600
  71.4577890   4.5810730  58.3851670  85.6303760   5.4367300  62.3242550
  86.1262880   5.2038170  63.1091430  85.4319830   4.5979140  61.9080190
  87.0590920   4.0728250  64.8580230  86.9490200   3.9184290  65.7962500
  87.8198510   3.5449190  64.6155640  87.9481190   1.9036170  58.0986370
  88.8730500   1.7717350  57.8904660  87.9256980   1.9828990  59.0522820
  88.0219680   2.6746830  60.7243080  87.2271180   2.6091950  61.2535990
  88.2262960   3.6097470  60.7128430  84.9638100  16.7138380  64.7181470
  85.5597170  16.3922950  64.0415890  85.2216250  16.2410200  65.5094740
  72.8700670  13.1456290  74.8672100  72.8270300  12.7749200  75.7486560
  73.0011680  14.0833860  75.0073920  76.5706700  14.7015880  70.4681820
  76.3298060  14.9690440  69.5812340  77.5109340  14.8721610  70.5232680
  87.8310860  16.7210260  71.2692460  87.3369140  17.1179130  70.5519590
  87.2224150  16.0959470  71.6629740  72.7088700  16.0918540  71.9869880
  72.1149020  15.9603240  72.7259920  72.7012540  15.2556680  71.5211980
  85.5150310  17.3633680  68.5479200  85.0553280  18.1149490  68.1737220
  84.8862770  16.6440150  68.4894000  72.3400930  13.4576920  70.9377920
  71.6134990  12.8382210  70.8703870  72.4010080  13.8517530  70.0676000
  75.9446030  15.6721920  67.7227330  76.4611050  15.0609280  67.1975590
  76.5943410  16.1750700  68.2138340  78.6841530  16.5630410  68.5496310
  78.9719340  16.3084710  67.6729320  79.1964750  16.0107770  69.1401880
  70.6230930  16.7751310  64.1474680  70.4552970  16.1421990  64.8456570
  69.7565440  16.9810710  63.7968870  77.7872760   2.7207360  64.6408850
  76.9747270   2.3464250  64.3004730  78.2914400   1.9652440  64.9430040
  72.2293630  15.4684540  61.5924820  71.7041250  15.8492570  60.8886780
  72.1538210  16.0935310  62.3134530  78.7513890  17.4846510  75.9164510
  79.6781200  17.2490780  75.9600470  78.7364320  18.3118510  75.4350540
  86.9858950  17.0272080  62.9138760  87.1611140  16.3409820  62.2699680
  86.2880520  17.5519130  62.5215430  74.8286600  17.4166920  60.4674070
  75.5605420  17.1326200  59.9197960  75.0880270  17.1780200  61.3573450
  73.9901390  13.5331650  60.4720400  73.3610270  14.0016750  61.0206230
  74.1049220  12.6880870  60.9066590  81.4451110   7.5837310  46.6221600
  81.3645160   6.6691920  46.3513310  81.0315530   8.0804380  45.9161310
  79.5769150   9.3616330  48.5030870  78.8011250   8.8816770  48.7929440
  80.2282080   8.6821980  48.3287030  73.5934980   9.6736140  49.3806630
  72.7619860   9.4184850  49.7803140  74.2015960   9.7446910  50.1164550
  83.5976580  13.7676520  47.2830000  83.1358110  12.9963760  47.6117170
  84.4102130  13.7942590  47.7882450  73.5736240  13.7076230  49.5764650
  73.8764280  12.8173970  49.3974870  74.3179830  14.2646450  49.3486900
  72.0026930   4.6338030  43.1649020  71.1143630   4.9754000  43.0628900
  72.2868120   4.4338350  42.2729850  69.9659940   7.2343680  49.0488720
  70.5376050   6.4665880  49.0492360  69.9661480   7.5332440  48.1395330
  79.0178140  12.0373520  48.5101030  78.9486420  11.0963460  48.3490160
  79.7798000  12.1274930  49.0823600  71.2084810   2.6428040  50.8357650
  71.0287650   1.7453790  51.1160410  70.8064890   3.1899910  51.5104600
  80.0483310   4.8443900  48.7369960  80.4248130   3.9715780  48.6243630
  79.9502820   5.1802600  47.8460400  74.1788320   3.2169530  44.1987400
  74.2855070   4.1173260  44.5056160  73.2680680   3.1687500  43.9082050
  83.8307430   2.3394340  45.6698300  84.6517050   1.8490910  45.7123780
  83.8641510   2.9292000  46.4230140  71.8271480   5.1388540  49.4439990
  72.5081590   5.4026910  50.0627390  71.5119530   4.2989410  49.7778000
  76.0196050   6.1855900  48.5312580  76.5274270   6.6836870  49.1717600
  76.5509290   5.4091100  48.3551940  88.1206980   4.3561090  52.2341930
  87.4159150   4.7442800  51.7157040  88.3864900   5.0511380  52.8362860
  80.6903240  10.9373770  44.2965900  80.0720510  11.4023220  43.7328620
  81.2026490  11.6301250  44.7135410  75.5535000  10.4649640  50.9749500
  75.2204380  11.0918560  51.6170570  75.7301680  10.9911520  50.1951170
  84.0668910   4.2794720  48.4425840  83.3624480   4.5679610  49.0228950
  84.4281070   5.0894830  48.0825400  73.9847480   2.5364420  50.8046450
  74.3264290   3.3806470  50.5100320  73.0463290   2.6848160  50.9211790
  74.7654100  12.4330440  52.7898680  75.3828100  13.1081520  52.5083130
  73.9047220  12.8418420  52.6986180  85.6831690  13.8969850  50.7053320
  84.9995210  14.5668960  50.6969990  86.2225980  14.0950500  49.9398180
  87.1355830   3.7249510  48.8335050  86.1880740   3.7588490  48.9650480
  87.4605820   4.5388460  49.2184410  83.2190430  15.7413980  49.4198500
  83.2317590  15.3376270  48.5520760  82.6665650  16.5161270  49.3159930
  84.5135850  12.4630200  44.5088670  84.4032180  11.5204530  44.6338090
  84.5104100  12.8245840  45.3951430  82.6175870  10.6443820  50.7481110
  83.0344660  10.4303930  49.9134570  83.3415690  10.9016610  51.3189730
  80.0556130   8.0895520  43.8651160  79.1285410   8.0232900  44.0939630
  80.2080950   9.0275650  43.7506400  80.0425210   4.3612520  40.8618320
  79.1028880   4.5226480  40.9470780  80.3608470   5.0798200  40.3154310
  86.5637970   9.0431040  50.8397350  85.7356600   9.1124130  50.3647480
  87.1588450   9.6285350  50.3713180  84.0853420   9.6515820  44.3686410
  83.4665840   9.3135370  43.7212710  84.0677870   9.0075580  45.0765600
  83.5279980   5.8300360  51.7852220  83.1151160   6.6554070  52.0392210
  82.7955930   5.2445400  51.5928580  75.6612770   8.6160260  46.6470890
  75.2569770   7.9037510  46.1516790  75.7475890   8.2713500  47.5358930
  76.1294470  12.3027820  48.8110100  75.8322760  11.6973290  48.1317880
  77.0794290  12.3405130  48.6999460  74.3741390   5.3903470  50.4269930
  74.9255980   5.4998810  49.6523180  74.8884900   5.7641070  51.1425160
  84.2180080  15.8759690  52.4733200  83.7410640  16.6831880  52.2805810
  83.5341870  15.2238020  52.6259410  75.2212900  12.0409510  55.4617900
  74.3241430  12.2649480  55.7091300  75.2465770  12.1644450  54.5129300
  82.2618120   8.8902630  41.3759160  82.7011400   8.0525060  41.2296980
  82.9746540   9.5232030  41.4623300  74.0484120   8.9122830  54.0375270
  73.9091890   9.7845630  54.4062670  73.1665480   8.5695640  53.8923210
  75.8464470  14.8544530  56.2460420  75.8179900  15.2587480  55.3788850
  75.6829440  13.9254890  56.0832020  72.3617400   7.5105240  44.1477540
  72.2415000   8.2367330  43.5358810  72.0518290   6.7408150  43.6705450
  87.7979290  15.6371630  57.5424590  88.2739010  16.1154520  58.2213670
  88.4186450  15.5689120  56.8170090  70.0002770  10.6820380  49.9546180
  70.0783190  10.8169150  49.0101900  70.6144450   9.9736270  50.1474300
  71.2450400  12.3820570  46.3652360  70.8378480  12.5235160  45.5105960
  72.1363410  12.0980730  46.1623570  87.2012540  12.8284480  54.7024600
  87.3275600  12.5896360  53.7841780  87.2433920  11.9969020  55.1746680
  81.0629280  16.5312480  53.2719410  81.5773950  16.4420490  54.0741840
  80.2198360  16.8772180  53.5647320  87.0536550   4.8816940  55.6674340
  86.4380820   5.3896610  55.1389800  86.7332970   3.9815270  55.6100280
  70.0562290  11.7234550  52.4940640  70.2193330  11.2539910  51.6760010
  70.5214740  11.2158110  53.1589480  79.1150870   3.7208830  53.1336530
  78.6530240   3.9291850  53.9456470  78.7128980   2.9068180  52.8307200
  84.1155380   4.9417780  54.2633190  83.2648970   4.6423530  54.5842260
  83.9557170   5.1859790  53.3517010  81.2105090   6.4419530  56.3631980
  81.5358500   5.6083280  56.0234210  81.9985420   6.9648050  56.5110310
  74.6195280   5.9773880  45.2582460  74.3936200   5.7611050  46.1629080
  73.8387810   6.4102340  44.9128430  81.8493040   5.9837250  43.8573110
  81.2501930   6.7073050  43.6736730  82.3972650   5.9214030  43.0749560
  77.0594490   6.8759460  55.9242730  76.9638090   5.9354190  55.7743130
  77.9026470   7.0974530  55.5290800  80.4557910   4.6200790  45.8876390
  80.8487480   4.9372990  45.0745080  80.8174760   3.7412670  46.0020910
  72.1905030   3.2873130  54.0776510  71.7968420   4.1348340  54.2849290
  71.5023430   2.6499500  54.2685150  78.7650080   3.3708100  57.1473250
  78.0748400   3.1780300  57.7819340  79.5082380   3.6542740  57.6797550
  69.6792310   5.1521710  39.3209310  69.5966980   6.0952470  39.4624300
  69.3275370   5.0096620  38.4421660  81.0413050   7.2106540  49.9827170
  80.3094170   7.7193350  50.3317270  80.6437390   6.3936520  49.6815950
  77.4790440   3.8860740  48.3879660  77.4826500   3.4450690  47.5384200
  78.3741560   4.2078070  48.4951480  73.3292820   3.7687230  47.3473870
  72.9892870   4.2462460  48.1040920  72.5670140   3.3152350  46.9874970
  77.5410590   4.8872820  41.3786420  77.6623410   4.8459300  42.3272240
  77.1559100   5.7496970  41.2233150  81.5038960   2.6640220  49.3950110
  81.5211700   3.1148870  50.2391960  81.2554540   1.7645860  49.6083550
  76.5532090   7.1973960  40.7769720  75.9848990   6.7492210  40.1505630
  77.2621090   7.5566740  40.2434870  71.6301270  11.0985980  54.6536450
  71.2456060  10.4579650  55.2519410  71.9413460  11.8022100  55.2231180
  77.7798410   7.9462520  50.1345070  78.1468540   7.4721090  50.8806410
  77.5903470   8.8204090  50.4753410  70.6438900   2.6906210  46.2638540
  70.3585820   2.3261880  47.1017160  70.5817760   1.9586670  45.6501680
  75.5697780   6.9871160  52.4529280  75.2654850   7.8663140  52.6779640
  76.5244240   7.0470950  52.4886720  84.8567550  10.1897510  48.8422520
  85.5766670  10.6852800  48.4518630  84.6549370   9.5115400  48.1976390
  80.2386350  10.2606570  54.7291520  80.1723660   9.3402240  54.4749110
  79.6091490  10.3582010  55.4436160  83.0325880   5.9555120  41.2814070
  83.9205500   6.2672350  41.1065410  83.0030970   5.0827370  40.8894650
  74.1416970  10.8612530  46.6874940  74.6595640  10.0580790  46.6331830
  73.6900990  10.7991670  47.5291770  71.6261510   7.8273900  53.6000640
  71.2676450   8.4927750  54.1873980  71.3316070   6.9957450  53.9713260
  74.8274630   8.2858140  56.4840190  74.5274770   8.4315320  55.5868010
  75.5985870   7.7263430  56.3913580  80.1703080  13.0827140  54.4795320
  80.1847620  12.1508100  54.2614230  79.4628180  13.1686900  55.1185090
  85.3040150   7.2666960  40.7493930  85.2203870   7.6981180  39.8990370
  86.0234340   7.7265310  41.1820750  86.3814290   9.7234480  53.8263900
  85.6562480  10.3163260  53.6293290  86.9089750   9.7158020  53.0277270
  86.3327400  14.1209220  43.4776060  85.6903560  13.4664840  43.7519780
  85.9458060  14.5264310  42.7016730  81.9113880  11.4494650  47.3247750
  82.2637700  10.8522780  46.6649120  81.0276210  11.1238880  47.4956000
  70.1369560   7.8265160  40.2235240  71.0064410   8.1089960  40.5071160
  69.6459880   8.6401030  40.1084050  77.3004370   9.2138370  44.3443520
  77.7567150  10.0243620  44.5703710  76.9492580   8.8961510  45.1762010
  79.6036980  14.7244710  51.5735820  80.2479200  14.9304090  52.2509240
  79.9666420  13.9633110  51.1206670  80.8769060  12.7277060  50.2913270
  81.5191290  12.0270220  50.4045440  81.4018410  13.5075500  50.1110160
  82.6506680  13.5271960  53.4949330  82.9862920  14.1138650  54.1727250
  81.7307020  13.3964670  53.7247120  84.3041030  10.9297620  41.6766570
  84.0162730  11.3910310  42.4644450  85.0993200  10.4695390  41.9450790
  70.4882670  15.3047400  55.2639270  70.5973790  14.3642140  55.1234660
  69.8363230  15.5702150  54.6153000  78.4795260  13.5763290  56.6637390
  78.1592130  12.8572530  57.2083080  77.8053620  14.2518360  56.7373450
  72.1216070   9.6438630  42.3517300  71.5144020  10.3837530  42.3612600
  72.5965420   9.7337990  41.5255500  81.6948860   3.8089450  52.0274190
  82.0629680   2.9884660  52.3553760  80.8347060   3.8691340  52.4429840
  85.0610890   2.7646390  42.8361750  84.4324050   2.8692060  42.1219980
  84.5662810   2.9843170  43.6255630  77.0294920   5.0432340  44.2519630
  76.3211070   5.5118680  44.6933240  77.3139400   4.3854350  44.8864820
  78.6550850   6.4629040  52.2512160  79.1536100   6.9374860  52.9164010
  78.7973800   5.5392560  52.4582190  81.0610350   1.7683000  45.6915420
  80.9378130   1.7869130  44.7424930  82.0094910   1.8161940  45.8113820
  75.2329940   3.3517420  41.6270340  76.0820470   3.7887570  41.5610530
  74.8661210   3.6637680  42.4542400  85.8617710   2.6797000  53.0940550
  85.3591310   3.4202400  53.4334360  86.6774370   3.0681000  52.7777340
  84.1539720   7.9230180  46.5401910  83.2129860   7.9380410  46.7149600
  84.4683790   7.1366140  46.9862210  74.1321360   9.6049780  40.1005870
  74.8984630   9.4931140  40.6631300  74.2096050   8.9087750  39.4482640
  72.8268120   7.0374850  40.7838760  72.9071710   6.0902360  40.8956160
  73.7187870   7.3681730  40.8899420  86.1565300  15.0939030  48.2156170
  86.2812720  15.9170200  48.6879980  87.0230860  14.8829760  47.8680320
  73.6282830  17.1870240  47.8873300  74.3645310  16.6385700  48.1581870
  74.0123750  18.0526250  47.7479290  72.6341110  16.3716310  57.0758880
  73.4353840  16.6928360  57.4894280  72.1192930  16.0111890  57.7978790
  81.4705740  12.4796180  57.0234290  80.8643900  12.5027780  56.2830040
  81.1659850  11.7479220  57.5601540  82.9006110  16.2076470  55.6343700
  83.8527860  16.1234490  55.5843940  82.7534330  16.8718180  56.3077490
  70.3538920   8.8589770  56.0194930  70.8577940   8.2797050  56.5911160
  69.6146340   9.1430000  56.5571300  77.2562540  11.5803960  39.5741220
  77.1513180  10.9656310  40.3002600  77.0886760  11.0569850  38.7904230
  77.4076860  10.2660760  55.5530450  76.6422530  10.8345760  55.4685120
  77.5892820   9.9736970  54.6598680  80.4965270  10.6423990  40.1783210
  79.9475370  11.0893290  40.8225950  81.1184530  10.1373240  40.7020880
  84.5500210  11.9966090  56.1105470  85.2909680  12.3341850  55.6072930
  83.7872890  12.1658150  55.5575240  72.3862000   7.0019360  56.9145000
  72.4267340   6.7033230  57.8230230  73.2407500   7.4026970  56.7552520
  76.1640390   9.6014910  42.0748510  76.5856810   9.4354780  42.9179900
  76.2891230   8.7915140  41.5803650  74.3267810   5.5811460  54.8819490
  73.7964270   5.0902410  54.2542830  74.9955880   6.0095660  54.3477420
  78.6768030   8.6252520  39.3225610  79.1973690   7.9101540  38.9566760
  79.3236430   9.2638390  39.6226120  83.2245870  10.0480920  54.6460680
  83.6386890  10.2026000  55.4951100  82.2896870  10.1736140  54.8086460
  83.6968040   7.3877080  56.6499830  84.2788810   6.6329400  56.5620310
  83.8729810   7.9184520  55.8731310  74.8140110   2.5473830  54.9616780
  74.7196980   1.9294580  54.2367650  74.2337500   3.2740120  54.7346690
  77.9861100  10.0001400  52.6156610  78.4049210  10.8434130  52.4432850
  77.0669730  10.1373440  52.3863390  80.3225000   7.7317580  53.9994450
  80.4421210   7.1358720  54.7389290  81.1819000   7.7687270  53.5795750
  82.6612900   8.2854770  52.5756960  82.1348120   8.8097390  51.9722100
  83.0044240   8.9182160  53.2066690  75.0599290   5.6748140  39.0206670
  74.8588350   4.8115500  39.3820010  74.8891340   5.5881500  38.0828270
  75.8368520  16.3054410  53.7314340  75.2989610  17.0300470  53.4123040
  76.0902480  15.8284750  52.9411680  77.0893770   4.2738930  55.2570270
  77.6793460   3.9654780  55.9448090  76.2714010   3.8018680  55.4130170
  81.9087200   3.8904740  55.4903290  81.2202720   3.2286280  55.4253280
  82.6293220   3.4443010  55.9351750  73.8582090   2.7748760  39.0084550
  74.1607990   2.7816190  38.1003700  74.5976680   2.4246620  39.5052210
  78.6930730  17.5405620  53.9900990  78.6189430  18.4440760  54.2973360
  77.7909570  17.2217520  53.9623060  70.0958020  14.8680210  47.2934610
  70.4261030  14.0001270  47.0613250  70.5249020  15.0738730  48.1239570
  70.5848230  15.7350800  50.0316240  70.1479220  15.9151600  50.8640390
  71.1525910  16.4925420  49.8897960  86.2210410  15.2367800  54.3193550
  85.6212400  15.2960360  53.5757470  86.3504310  14.2972780  54.4490400
  87.4611860  12.9785620  39.6563260  86.6304820  13.0462270  40.1270490
  87.6383690  13.8689740  39.3530120  86.9168320   9.7233100  42.1597460
  87.6787230  10.2929750  42.2657150  86.9322690   9.1560300  42.9305770
  70.4172660   8.2471030  46.3905120  69.7621500   7.9782670  45.7464820
  71.2550610   8.1375510  45.9407100  87.9228290  10.5783200  47.0039390
  88.2937120   9.7950520  46.5975360  88.5630220  11.2672300  46.8256690
  84.9062050  11.9619780  52.4169710  84.0921890  12.3916940  52.6795500
  85.3136250  12.5738190  51.8038760  86.9687490  10.0167470  39.3169980
  87.2436330  10.9246350  39.1889200  86.7798230   9.9530000  40.2531970
  83.3663100   3.0412320  40.6123610  83.7847980   2.8543300  39.7720270
  83.0599160   2.1891370  40.9226540  86.8652830   7.9536460  44.3099410
  86.4896430   7.1864390  43.8780700  86.1355950   8.3359160  44.7974340
  71.4548590   8.6323600  50.9308460  71.8221630   8.5451000  51.8104480
  70.8859410   7.8690150  50.8315320  86.2552450   7.1007980  53.9438930
  86.0238540   6.8720730  53.0436880  86.5157000   8.0207530  53.8983820
  71.0064590   5.5432690  54.8366880  70.1120640   5.5099450  55.1760590
  71.5462140   5.7419480  55.6018130  84.6940520   2.3264410  56.7218630
  85.5710700   2.3347810  57.1052630  84.7061360   1.5895250  56.1110980
  69.6310740   5.4569960  42.3330450  68.7274820   5.7200160  42.1582110
  70.1151360   5.7281130  41.5530410  86.1403790   6.1793950  47.6106650
  86.6641270   5.6856600  46.9796820  86.7263210   6.3144310  48.3554220
  86.3193510   6.2633820  51.1326200  85.3696220   6.2297360  51.2471190
  86.5006520   7.1733930  50.8975970  72.1737950   4.5135500  40.2424830
  72.8829650   4.0918720  39.7572110  71.4577890   4.5810730  39.6108180
  85.6303760   5.4367300  43.5499060  86.1262880   5.2038170  44.3347940
  85.4319830   4.5979140  43.1336700  87.0590920   4.0728250  46.0836740
  86.9490200   3.9184290  47.0219010  87.8198510   3.5449190  45.8412150
  87.9481190   1.9036170  39.3242880  88.8730500   1.7717350  39.1161170
  87.9256980   1.9828990  40.2779330  88.0219680   2.6746830  41.9499590
  87.2271180   2.6091950  42.4792500  88.2262960   3.6097470  41.9384940
  72.8700670  13.1456290  56.0928610  72.8270300  12.7749200  56.9743070
  73.0011680  14.0833860  56.2330430  76.5706700  14.7015880  51.6938330
  76.3298060  14.9690440  50.8068850  77.5109340  14.8721610  51.7489190
  87.8310860  16.7210260  52.4948970  87.3369140  17.1179130  51.7776100
  87.2224150  16.0959470  52.8886250  72.7088700  16.0918540  53.2126390
  72.1149020  15.9603240  53.9516430  72.7012540  15.2556680  52.7468490
  85.5150310  17.3633680  49.7735710  85.0553280  18.1149490  49.3993730
  84.8862770  16.6440150  49.7150510  72.3400930  13.4576920  52.1634430
  71.6134990  12.8382210  52.0960380  72.4010080  13.8517530  51.2932510
  75.9446030  15.6721920  48.9483840  76.4611050  15.0609280  48.4232100
  76.5943410  16.1750700  49.4394850  78.6841530  16.5630410  49.7752820
  78.9719340  16.3084710  48.8985830  79.1964750  16.0107770  50.3658390
  70.6230930  16.7751310  45.3731190  70.4552970  16.1421990  46.0713080
  69.7565440  16.9810710  45.0225380  77.7872760   2.7207360  45.8665360
  76.9747270   2.3464250  45.5261240  78.2914400   1.9652440  46.1686550
  78.7513890  17.4846510  57.1421020  79.6781200  17.2490780  57.1856980
  78.7364320  18.3118510  56.6607050  86.9858950  17.0272080  44.1395270
  87.1611140  16.3409820  43.4956190  86.2880520  17.5519130  43.7471940
  85.3191450  16.7116370  56.9662060  86.1116770  16.2165600  56.7588020
  85.6124600  17.3906510  57.5737670  81.4451110   7.5837310  27.8478110
  81.3645160   6.6691920  27.5769820  81.0315530   8.0804380  27.1417820
  79.5769150   9.3616330  29.7287380  78.8011250   8.8816770  30.0185950
  80.2282080   8.6821980  29.5543540  73.5934980   9.6736140  30.6063140
  72.7619860   9.4184850  31.0059650  74.2015960   9.7446910  31.3421060
  83.5976580  13.7676520  28.5086510  83.1358110  12.9963760  28.8373680
  84.4102130  13.7942590  29.0138960  73.5736240  13.7076230  30.8021160
  73.8764280  12.8173970  30.6231380  74.3179830  14.2646450  30.5743410
  72.0026930   4.6338030  24.3905530  71.1143630   4.9754000  24.2885410
  72.2868120   4.4338350  23.4986360  69.9659940   7.2343680  30.2745230
  70.5376050   6.4665880  30.2748870  69.9661480   7.5332440  29.3651840
  79.0178140  12.0373520  29.7357540  78.9486420  11.0963460  29.5746670
  79.7798000  12.1274930  30.3080110  71.2084810   2.6428040  32.0614160
  71.0287650   1.7453790  32.3416920  70.8064890   3.1899910  32.7361110
  80.0483310   4.8443900  29.9626470  80.4248130   3.9715780  29.8500140
  79.9502820   5.1802600  29.0716910  74.1788320   3.2169530  25.4243910
  74.2855070   4.1173260  25.7312670  73.2680680   3.1687500  25.1338560
  83.8307430   2.3394340  26.8954810  84.6517050   1.8490910  26.9380290
  83.8641510   2.9292000  27.6486650  71.8271480   5.1388540  30.6696500
  72.5081590   5.4026910  31.2883900  71.5119530   4.2989410  31.0034510
  76.0196050   6.1855900  29.7569090  76.5274270   6.6836870  30.3974110
  76.5509290   5.4091100  29.5808450  88.1206980   4.3561090  33.4598440
  87.4159150   4.7442800  32.9413550  88.3864900   5.0511380  34.0619370
  80.6903240  10.9373770  25.5222410  80.0720510  11.4023220  24.9585130
  81.2026490  11.6301250  25.9391920  75.5535000  10.4649640  32.2006010
  75.2204380  11.0918560  32.8427080  75.7301680  10.9911520  31.4207680
  84.0668910   4.2794720  29.6682350  83.3624480   4.5679610  30.2485460
  84.4281070   5.0894830  29.3081910  73.9847480   2.5364420  32.0302960
  74.3264290   3.3806470  31.7356830  73.0463290   2.6848160  32.1468300
  74.7654100  12.4330440  34.0155190  75.3828100  13.1081520  33.7339640
  73.9047220  12.8418420  33.9242690  70.0586440  11.6230300  22.8962040
  69.6814420  12.1117400  22.1646940  70.3159510  12.2955580  23.5268570
  85.6831690  13.8969850  31.9309830  84.9995210  14.5668960  31.9226500
  86.2225980  14.0950500  31.1654690  87.1355830   3.7249510  30.0591560
  86.1880740   3.7588490  30.1906990  87.4605820   4.5388460  30.4440920
  84.5135850  12.4630200  25.7345180  84.4032180  11.5204530  25.8594600
  84.5104100  12.8245840  26.6207940  82.6175870  10.6443820  31.9737620
  83.0344660  10.4303930  31.1391080  83.3415690  10.9016610  32.5446240
  80.0556130   8.0895520  25.0907670  79.1285410   8.0232900  25.3196140
  80.2080950   9.0275650  24.9762910  80.0425210   4.3612520  22.0874830
  79.1028880   4.5226480  22.1727290  80.3608470   5.0798200  21.5410820
  86.5637970   9.0431040  32.0653860  85.7356600   9.1124130  31.5903990
  87.1588450   9.6285350  31.5969690  84.0853420   9.6515820  25.5942920
  83.4665840   9.3135370  24.9469220  84.0677870   9.0075580  26.3022110
  83.5279980   5.8300360  33.0108730  83.1151160   6.6554070  33.2648720
  82.7955930   5.2445400  32.8185090  75.6612770   8.6160260  27.8727400
  75.2569770   7.9037510  27.3773300  75.7475890   8.2713500  28.7615440
  76.1294470  12.3027820  30.0366610  75.8322760  11.6973290  29.3574390
  77.0794290  12.3405130  29.9255970  74.3741390   5.3903470  31.6526440
  74.9255980   5.4998810  30.8779690  74.8884900   5.7641070  32.3681670
  75.2212900  12.0409510  36.6874410  74.3241430  12.2649480  36.9347810
  75.2465770  12.1644450  35.7385810  82.2618120   8.8902630  22.6015670
  82.7011400   8.0525060  22.4553490  82.9746540   9.5232030  22.6879810
  74.0484120   8.9122830  35.2631780  73.9091890   9.7845630  35.6319180
  73.1665480   8.5695640  35.1179720  80.3713500  13.8298700  26.5696910
  80.8109410  14.5723030  26.1552300  80.3100390  14.0725270  27.4935870
  72.3617400   7.5105240  25.3734050  72.2415000   8.2367330  24.7615320
  72.0518290   6.7408150  24.8961960  87.7979290  15.6371630  38.7681100
  88.2739010  16.1154520  39.4470180  88.4186450  15.5689120  38.0426600
  70.0002770  10.6820380  31.1802690  70.0783190  10.8169150  30.2358410
  70.6144450   9.9736270  31.3730810  71.2450400  12.3820570  27.5908870
  70.8378480  12.5235160  26.7362470  72.1363410  12.0980730  27.3880080
  83.0383680  16.8167820  23.9259920  82.8784820  16.5270760  24.8241750
  82.8730390  16.0407950  23.3905150  75.5172060  16.5966350  25.7031540
  75.3414540  15.6801890  25.4899340  74.6627800  16.9553640  25.9429340
  82.7409810  14.3255380  22.4857920  82.0474970  14.3232670  21.8260200
  83.4832670  13.9014700  22.0552090  87.0536550   4.8816940  36.8930850
  86.4380820   5.3896610  36.3646310  86.7332970   3.9815270  36.8356790
  70.0562290  11.7234550  33.7197150  70.2193330  11.2539910  32.9016520
  70.5214740  11.2158110  34.3845990  79.1150870   3.7208830  34.3593040
  78.6530240   3.9291850  35.1712980  78.7128980   2.9068180  34.0563710
  84.1155380   4.9417780  35.4889700  83.2648970   4.6423530  35.8098770
  83.9557170   5.1859790  34.5773520  81.2105090   6.4419530  37.5888490
  81.5358500   5.6083280  37.2490720  81.9985420   6.9648050  37.7366820
  74.6195280   5.9773880  26.4838970  74.3936200   5.7611050  27.3885590
  73.8387810   6.4102340  26.1384940  81.8493040   5.9837250  25.0829620
  81.2501930   6.7073050  24.8993240  82.3972650   5.9214030  24.3006070
  77.0594490   6.8759460  37.1499240  76.9638090   5.9354190  36.9999640
  77.9026470   7.0974530  36.7547310  80.4557910   4.6200790  27.1132900
  80.8487480   4.9372990  26.3001590  80.8174760   3.7412670  27.2277420
  72.1905030   3.2873130  35.3033020  71.7968420   4.1348340  35.5105800
  71.5023430   2.6499500  35.4941660  78.7650080   3.3708100  38.3729760
  78.0748400   3.1780300  39.0075850  79.5082380   3.6542740  38.9054060
  69.6792310   5.1521710  20.5465820  69.5966980   6.0952470  20.6880810
  69.3275370   5.0096620  19.6678170  81.0413050   7.2106540  31.2083680
  80.3094170   7.7193350  31.5573780  80.6437390   6.3936520  30.9072460
  77.4790440   3.8860740  29.6136170  77.4826500   3.4450690  28.7640710
  78.3741560   4.2078070  29.7207990  73.3292820   3.7687230  28.5730380
  72.9892870   4.2462460  29.3297430  72.5670140   3.3152350  28.2131480
  77.5410590   4.8872820  22.6042930  77.6623410   4.8459300  23.5528750
  77.1559100   5.7496970  22.4489660  81.5038960   2.6640220  30.6206620
  81.5211700   3.1148870  31.4648470  81.2554540   1.7645860  30.8340060
  76.5532090   7.1973960  22.0026230  75.9848990   6.7492210  21.3762140
  77.2621090   7.5566740  21.4691380  71.6301270  11.0985980  35.8792960
  71.2456060  10.4579650  36.4775920  71.9413460  11.8022100  36.4487690
  77.7798410   7.9462520  31.3601580  78.1468540   7.4721090  32.1062920
  77.5903470   8.8204090  31.7009920  70.6438900   2.6906210  27.4895050
  70.3585820   2.3261880  28.3273670  70.5817760   1.9586670  26.8758190
  75.5697780   6.9871160  33.6785790  75.2654850   7.8663140  33.9036150
  76.5244240   7.0470950  33.7143230  74.0979570  11.1932150  24.2752640
  73.3241830  10.6529770  24.1151360  74.8274200  10.6738760  23.9370400
  84.8567550  10.1897510  30.0679030  85.5766670  10.6852800  29.6775140
  84.6549370   9.5115400  29.4232900  80.2386350  10.2606570  35.9548030
  80.1723660   9.3402240  35.7005620  79.6091490  10.3582010  36.6692670
  83.0325880   5.9555120  22.5070580  83.9205500   6.2672350  22.3321920
  83.0030970   5.0827370  22.1151160  74.1416970  10.8612530  27.9131450
  74.6595640  10.0580790  27.8588340  73.6900990  10.7991670  28.7548280
  79.0286470  12.1278810  23.1858750  79.3702170  12.8721040  22.6902070
  78.1999180  12.4409930  23.5483580  71.6261510   7.8273900  34.8257150
  71.2676450   8.4927750  35.4130490  71.3316070   6.9957450  35.1969770
  74.8274630   8.2858140  37.7096700  74.5274770   8.4315320  36.8124520
  75.5985870   7.7263430  37.6170090  85.3040150   7.2666960  21.9750440
  85.2203870   7.6981180  21.1246880  86.0234340   7.7265310  22.4077260
  86.3814290   9.7234480  35.0520410  85.6562480  10.3163260  34.8549800
  86.9089750   9.7158020  34.2533780  86.3327400  14.1209220  24.7032570
  85.6903560  13.4664840  24.9776290  85.9458060  14.5264310  23.9273240
  81.9113880  11.4494650  28.5504260  82.2637700  10.8522780  27.8905630
  81.0276210  11.1238880  28.7212510  77.9977160  12.2092340  25.9574670
  78.6848290  12.7561550  26.3382260  77.2109580  12.7533070  25.9924280
  70.1369560   7.8265160  21.4491750  71.0064410   8.1089960  21.7327670
  69.6459880   8.6401030  21.3340560  77.3004370   9.2138370  25.5700030
  77.7567150  10.0243620  25.7960220  76.9492580   8.8961510  26.4018520
  79.6036980  14.7244710  32.7992330  80.2479200  14.9304090  33.4765750
  79.9666420  13.9633110  32.3463180  80.8769060  12.7277060  31.5169780
  81.5191290  12.0270220  31.6301950  81.4018410  13.5075500  31.3366670
  84.7224780  13.0125680  21.2408920  84.4962360  12.2956120  21.8333560
  84.3320980  12.7638120  20.4030670  70.5040810  17.0392540  22.0153380
  70.8638450  17.6381880  21.3610650  70.3633150  17.5852430  22.7888410
  84.3041030  10.9297620  22.9023080  84.0162730  11.3910310  23.6900960
  85.0993200  10.4695390  23.1707300  76.5209430  14.4223740  22.8327050
  76.5119530  15.1553430  22.2171560  75.6007790  14.1755320  22.9254010
  72.1216070   9.6438630  23.5773810  71.5144020  10.3837530  23.5869110
  72.5965420   9.7337990  22.7512010  81.6948860   3.8089450  33.2530700
  82.0629680   2.9884660  33.5810270  80.8347060   3.8691340  33.6686350
  85.0610890   2.7646390  24.0618260  84.4324050   2.8692060  23.3476490
  84.5662810   2.9843170  24.8512140  79.5069030  14.4851980  21.4952240
  79.6081010  14.2815970  20.5654220  78.6070770  14.2310260  21.7000020
  77.0294920   5.0432340  25.4776140  76.3211070   5.5118680  25.9189750
  77.3139400   4.3854350  26.1121330  78.6550850   6.4629040  33.4768670
  79.1536100   6.9374860  34.1420520  78.7973800   5.5392560  33.6838700
  81.0610350   1.7683000  26.9171930  80.9378130   1.7869130  25.9681440
  82.0094910   1.8161940  27.0370330  78.1487140  17.0038300  26.1899910
  78.4028640  16.9659690  25.2679280  77.1999620  16.8771630  26.1828160
  75.2329940   3.3517420  22.8526850  76.0820470   3.7887570  22.7867040
  74.8661210   3.6637680  23.6798910  85.8617710   2.6797000  34.3197060
  85.3591310   3.4202400  34.6590870  86.6774370   3.0681000  34.0033850
  84.1539720   7.9230180  27.7658420  83.2129860   7.9380410  27.9406110
  84.4683790   7.1366140  28.2118720  74.1321360   9.6049780  21.3262380
  74.8984630   9.4931140  21.8887810  74.2096050   8.9087750  20.6739150
  72.8268120   7.0374850  22.0095270  72.9071710   6.0902360  22.1212670
  73.7187870   7.3681730  22.1155930  70.5128310  13.2543810  24.9871320
  69.5868090  13.4964950  24.9776730  70.9784740  14.0818070  24.8656070
  76.7385140  16.3600550  20.9355380  77.5313750  16.6489380  20.4837170
  76.2189490  15.9292720  20.2567860  85.7915310  15.5870680  22.3592120
  85.5056820  15.1735820  21.5446300  85.5934860  16.5158390  22.2392640
  70.3538920   8.8589770  37.2451440  70.8577940   8.2797050  37.8167670
  69.6146340   9.1430000  37.7827810  77.2562540  11.5803960  20.7997730
  77.1513180  10.9656310  21.5259110  77.0886760  11.0569850  20.0160740
  77.4076860  10.2660760  36.7786960  76.6422530  10.8345760  36.6941630
  77.5892820   9.9736970  35.8855190  80.4965270  10.6423990  21.4039720
  79.9475370  11.0893290  22.0482460  81.1184530  10.1373240  21.9277390
  72.3862000   7.0019360  38.1401510  72.4267340   6.7033230  39.0486740
  73.2407500   7.4026970  37.9809030  76.1640390   9.6014910  23.3005020
  76.5856810   9.4354780  24.1436410  76.2891230   8.7915140  22.8060160
  74.3267810   5.5811460  36.1076000  73.7964270   5.0902410  35.4799340
  74.9955880   6.0095660  35.5733930  78.6768030   8.6252520  20.5482120
  79.1973690   7.9101540  20.1823270  79.3236430   9.2638390  20.8482630
  83.6968040   7.3877080  37.8756340  84.2788810   6.6329400  37.7876820
  83.8729810   7.9184520  37.0987820  74.8140110   2.5473830  36.1873290
  74.7196980   1.9294580  35.4624160  74.2337500   3.2740120  35.9603200
  77.9861100  10.0001400  33.8413120  78.4049210  10.8434130  33.6689360
  77.0669730  10.1373440  33.6119900  80.3225000   7.7317580  35.2250960
  80.4421210   7.1358720  35.9645800  81.1819000   7.7687270  34.8052260
  82.6612900   8.2854770  33.8013470  82.1348120   8.8097390  33.1978610
  83.0044240   8.9182160  34.4323200  75.0599290   5.6748140  20.2463180
  74.8588350   4.8115500  20.6076520  74.8891340   5.5881500  19.3084780
  77.0893770   4.2738930  36.4826780  77.6793460   3.9654780  37.1704600
  76.2714010   3.8018680  36.6386680  81.9087200   3.8904740  36.7159800
  81.2202720   3.2286280  36.6509790  82.6293220   3.4443010  37.1608260
  73.8582090   2.7748760  20.2341060  74.1607990   2.7816190  19.3260210
  74.5976680   2.4246620  20.7308720  79.2416060  16.7064130  22.8383860
  80.1366850  17.0449100  22.8602620  79.2733690  15.9843540  22.2108140
  72.8812220  12.0791180  21.0670860  73.3187090  12.6220850  21.7228440
  73.3659950  11.2538130  21.0767200  70.0958020  14.8680210  28.5191120
  70.4261030  14.0001270  28.2869760  70.5249020  15.0738730  29.3496080
  74.6919940  13.1989220  26.1793090  74.3915480  13.0754190  27.0797000
  74.5857430  12.3397810  25.7708820  70.5848230  15.7350800  31.2572750
  70.1479220  15.9151600  32.0896900  71.1525910  16.4925420  31.1154470
  87.4611860  12.9785620  20.8819770  86.6304820  13.0462270  21.3527000
  87.6383690  13.8689740  20.5786630  86.9168320   9.7233100  23.3853970
  87.6787230  10.2929750  23.4913660  86.9322690   9.1560300  24.1562280
  70.4172660   8.2471030  27.6161630  69.7621500   7.9782670  26.9721330
  71.2550610   8.1375510  27.1663610  87.9228290  10.5783200  28.2295900
  88.2937120   9.7950520  27.8231870  88.5630220  11.2672300  28.0513200
  86.9687490  10.0167470  20.5426490  87.2436330  10.9246350  20.4145710
  86.7798230   9.9530000  21.4788480  83.3663100   3.0412320  21.8380120
  83.7847980   2.8543300  20.9976780  83.0599160   2.1891370  22.1483050
  86.8652830   7.9536460  25.5355920  86.4896430   7.1864390  25.1037210
  86.1355950   8.3359160  26.0230850  71.4548590   8.6323600  32.1564970
  71.8221630   8.5451000  33.0360990  70.8859410   7.8690150  32.0571830
  86.2552450   7.1007980  35.1695440  86.0238540   6.8720730  34.2693390
  86.5157000   8.0207530  35.1240330  71.0064590   5.5432690  36.0623390
  70.1120640   5.5099450  36.4017100  71.5462140   5.7419480  36.8274640
  84.6940520   2.3264410  37.9475140  85.5710700   2.3347810  38.3309140
  84.7061360   1.5895250  37.3367490  69.6310740   5.4569960  23.5586960
  68.7274820   5.7200160  23.3838620  70.1151360   5.7281130  22.7786920
  86.1403790   6.1793950  28.8363160  86.6641270   5.6856600  28.2053330
  86.7263210   6.3144310  29.5810730  86.3193510   6.2633820  32.3582710
  85.3696220   6.2297360  32.4727700  86.5006520   7.1733930  32.1232480
  72.1737950   4.5135500  21.4681340  72.8829650   4.0918720  20.9828620
  71.4577890   4.5810730  20.8364690  85.6303760   5.4367300  24.7755570
  86.1262880   5.2038170  25.5604450  85.4319830   4.5979140  24.3593210
  87.0590920   4.0728250  27.3093250  86.9490200   3.9184290  28.2475520
  87.8198510   3.5449190  27.0668660  87.9481190   1.9036170  20.5499390
  88.8730500   1.7717350  20.3417680  87.9256980   1.9828990  21.5035840
  88.0219680   2.6746830  23.1756100  87.2271180   2.6091950  23.7049010
  88.2262960   3.6097470  23.1641450  72.8700670  13.1456290  37.3185120
  72.8270300  12.7749200  38.1999580  73.0011680  14.0833860  37.4586940
  76.5706700  14.7015880  32.9194840  76.3298060  14.9690440  32.0325360
  77.5109340  14.8721610  32.9745700  72.3400930  13.4576920  33.3890940
  71.6134990  12.8382210  33.3216890  72.4010080  13.8517530  32.5189020
  70.6230930  16.7751310  26.5987700  70.4552970  16.1421990  27.2969590
  69.7565440  16.9810710  26.2481890  77.7872760   2.7207360  27.0921870
  76.9747270   2.3464250  26.7517750  78.2914400   1.9652440  27.3943060
  72.2293630  15.4684540  24.0437840  71.7041250  15.8492570  23.3399800
  72.1538210  16.0935310  24.7647550  86.9858950  17.0272080  25.3651780
  87.1611140  16.3409820  24.7212700  86.2880520  17.5519130  24.9728450
  74.8286600  17.4166920  22.9187090  75.5605420  17.1326200  22.3710980
  75.0880270  17.1780200  23.8086470  73.9901390  13.5331650  22.9233420
  73.3610270  14.0016750  23.4719250  74.1049220  12.6880870  23.3579610
  81.4451110   7.5837310   9.0734620  81.3645160   6.6691920   8.8026330
  81.0315530   8.0804380   8.3674330  79.5769150   9.3616330  10.9543890
  78.8011250   8.8816770  11.2442460  80.2282080   8.6821980  10.7800050
  73.5934980   9.6736140  11.8319650  72.7619860   9.4184850  12.2316160
  74.2015960   9.7446910  12.5677570  83.5976580  13.7676520   9.7343020
  83.1358110  12.9963760  10.0630190  84.4102130  13.7942590  10.2395470
  73.5736240  13.7076230  12.0277670  73.8764280  12.8173970  11.8487890
  74.3179830  14.2646450  11.7999920  72.0026930   4.6338030   5.6162040
  71.1143630   4.9754000   5.5141920  72.2868120   4.4338350   4.7242870
  69.9659940   7.2343680  11.5001740  70.5376050   6.4665880  11.5005380
  69.9661480   7.5332440  10.5908350  79.8239890  16.0534530   9.3547010
  79.2051330  16.5092030   8.7841450  80.6791670  16.2085990   8.9536710
  79.0178140  12.0373520  10.9614050  78.9486420  11.0963460  10.8003180
  79.7798000  12.1274930  11.5336620  71.2084810   2.6428040  13.2870670
  71.0287650   1.7453790  13.5673430  70.8064890   3.1899910  13.9617620
  80.0483310   4.8443900  11.1882980  80.4248130   3.9715780  11.0756650
  79.9502820   5.1802600  10.2973420  74.1788320   3.2169530   6.6500420
  74.2855070   4.1173260   6.9569180  73.2680680   3.1687500   6.3595070
  83.8307430   2.3394340   8.1211320  84.6517050   1.8490910   8.1636800
  83.8641510   2.9292000   8.8743160  71.8271480   5.1388540  11.8953010
  72.5081590   5.4026910  12.5140410  71.5119530   4.2989410  12.2291020
  76.0196050   6.1855900  10.9825600  76.5274270   6.6836870  11.6230620
  76.5509290   5.4091100  10.8064960  88.1206980   4.3561090  14.6854950
  87.4159150   4.7442800  14.1670060  88.3864900   5.0511380  15.2875880
  80.6903240  10.9373770   6.7478920  80.0720510  11.4023220   6.1841640
  81.2026490  11.6301250   7.1648430  75.5535000  10.4649640  13.4262520
  75.2204380  11.0918560  14.0683590  75.7301680  10.9911520  12.6464190
  84.0668910   4.2794720  10.8938860  83.3624480   4.5679610  11.4741970
  84.4281070   5.0894830  10.5338420  73.9847480   2.5364420  13.2559470
  74.3264290   3.3806470  12.9613340  73.0463290   2.6848160  13.3724810
  74.7654100  12.4330440  15.2411700  75.3828100  13.1081520  14.9596150
  73.9047220  12.8418420  15.1499200  70.0586440  11.6230300   4.1218550
  69.6814420  12.1117400   3.3903450  70.3159510  12.2955580   4.7525080
  85.6831690  13.8969850  13.1566340  84.9995210  14.5668960  13.1483010
  86.2225980  14.0950500  12.3911200  87.1355830   3.7249510  11.2848070
  86.1880740   3.7588490  11.4163500  87.4605820   4.5388460  11.6697430
  83.2190430  15.7413980  11.8711520  83.2317590  15.3376270  11.0033780
  82.6665650  16.5161270  11.7672950  84.5135850  12.4630200   6.9601690
  84.4032180  11.5204530   7.0851110  84.5104100  12.8245840   7.8464450
  82.6175870  10.6443820  13.1994130  83.0344660  10.4303930  12.3647590
  83.3415690  10.9016610  13.7702750  80.0556130   8.0895520   6.3164180
  79.1285410   8.0232900   6.5452650  80.2080950   9.0275650   6.2019420
  80.0425210   4.3612520   3.3131340  79.1028880   4.5226480   3.3983800
  80.3608470   5.0798200   2.7667330  86.5637970   9.0431040  13.2910370
  85.7356600   9.1124130  12.8160500  87.1588450   9.6285350  12.8226200
  84.0853420   9.6515820   6.8199430  83.4665840   9.3135370   6.1725730
  84.0677870   9.0075580   7.5278620  83.5279980   5.8300360  14.2365240
  83.1151160   6.6554070  14.4905230  82.7955930   5.2445400  14.0441600
  75.6612770   8.6160260   9.0983910  75.2569770   7.9037510   8.6029810
  75.7475890   8.2713500   9.9871950  76.1294470  12.3027820  11.2623120
  75.8322760  11.6973290  10.5830900  77.0794290  12.3405130  11.1512480
  74.3741390   5.3903470  12.8782950  74.9255980   5.4998810  12.1036200
  74.8884900   5.7641070  13.5938180  84.2180080  15.8759690  14.9246220
  83.7410640  16.6831880  14.7318830  83.5341870  15.2238020  15.0772430
  75.2212900  12.0409510  17.9130920  74.3241430  12.2649480  18.1604320
  75.2465770  12.1644450  16.9642320  82.2618120   8.8902630   3.8272180
  82.7011400   8.0525060   3.6810000  82.9746540   9.5232030   3.9136320
  74.0484120   8.9122830  16.4888290  73.9091890   9.7845630  16.8575690
  73.1665480   8.5695640  16.3436230  80.3713500  13.8298700   7.7953420
  80.8109410  14.5723030   7.3808810  80.3100390  14.0725270   8.7192380
  75.8464470  14.8544530  18.6973440  75.8179900  15.2587480  17.8301870
  75.6829440  13.9254890  18.5345040  72.3617400   7.5105240   6.5990560
  72.2415000   8.2367330   5.9871830  72.0518290   6.7408150   6.1218470
  87.7979290  15.6371630  19.9937610  88.2739010  16.1154520  20.6726690
  88.4186450  15.5689120  19.2683110  70.0002770  10.6820380  12.4059200
  70.0783190  10.8169150  11.4614920  70.6144450   9.9736270  12.5987320
  71.2450400  12.3820570   8.8165380  70.8378480  12.5235160   7.9618980
  72.1363410  12.0980730   8.6136590  87.2012540  12.8284480  17.1537620
  87.3275600  12.5896360  16.2354800  87.2433920  11.9969020  17.6259700
  81.0629280  16.5312480  15.7232430  81.5773950  16.4420490  16.5254860
  80.2198360  16.8772180  16.0160340  83.0383680  16.8167820   5.1516430
  82.8784820  16.5270760   6.0498260  82.8730390  16.0407950   4.6161660
  75.5172060  16.5966350   6.9288050  75.3414540  15.6801890   6.7155850
  74.6627800  16.9553640   7.1685850  82.7409810  14.3255380   3.7114430
  82.0474970  14.3232670   3.0516710  83.4832670  13.9014700   3.2808600
  82.3059740  15.9518090   7.7862920  82.7616690  15.1707470   8.1001540
  82.6452260  16.6624910   8.3304100  87.0536550   4.8816940  18.1187360
  86.4380820   5.3896610  17.5902820  86.7332970   3.9815270  18.0613300
  70.0562290  11.7234550  14.9453660  70.2193330  11.2539910  14.1273030
  70.5214740  11.2158110  15.6102500  79.1150870   3.7208830  15.5849550
  78.6530240   3.9291850  16.3969490  78.7128980   2.9068180  15.2820220
  84.1155380   4.9417780  16.7146210  83.2648970   4.6423530  17.0355280
  83.9557170   5.1859790  15.8030030  81.2105090   6.4419530  18.8145000
  81.5358500   5.6083280  18.4747230  81.9985420   6.9648050  18.9623330
  74.6195280   5.9773880   7.7095480  74.3936200   5.7611050   8.6142100
  73.8387810   6.4102340   7.3641450  81.8493040   5.9837250   6.3086130
  81.2501930   6.7073050   6.1249750  82.3972650   5.9214030   5.5262580
  77.0594490   6.8759460  18.3755750  76.9638090   5.9354190  18.2256150
  77.9026470   7.0974530  17.9803820  80.4557910   4.6200790   8.3389410
  80.8487480   4.9372990   7.5258100  80.8174760   3.7412670   8.4533930
  72.1905030   3.2873130  16.5289530  71.7968420   4.1348340  16.7362310
  71.5023430   2.6499500  16.7198170  78.7650080   3.3708100  19.5986270
  78.0748400   3.1780300  20.2332360  79.5082380   3.6542740  20.1310570
  81.0413050   7.2106540  12.4340190  80.3094170   7.7193350  12.7830290
  80.6437390   6.3936520  12.1328970  77.4790440   3.8860740  10.8392680
  77.4826500   3.4450690   9.9897220  78.3741560   4.2078070  10.9464500
  73.3292820   3.7687230   9.7986890  72.9892870   4.2462460  10.5553940
  72.5670140   3.3152350   9.4387990  77.5410590   4.8872820   3.8299440
  77.6623410   4.8459300   4.7785260  77.1559100   5.7496970   3.6746170
  81.5038960   2.6640220  11.8463130  81.5211700   3.1148870  12.6904980
  81.2554540   1.7645860  12.0596570  76.5532090   7.1973960   3.2282740
  75.9848990   6.7492210   2.6018650  77.2621090   7.5566740   2.6947890
  71.6301270  11.0985980  17.1049470  71.2456060  10.4579650  17.7032430
  71.9413460  11.8022100  17.6744200  77.7798410   7.9462520  12.5858090
  78.1468540   7.4721090  13.3319430  77.5903470   8.8204090  12.9266430
  70.6438900   2.6906210   8.7151560  70.3585820   2.3261880   9.5530180
  70.5817760   1.9586670   8.1014700  75.5697780   6.9871160  14.9042300
  75.2654850   7.8663140  15.1292660  76.5244240   7.0470950  14.9399740
  74.0979570  11.1932150   5.5009150  73.3241830  10.6529770   5.3407870
  74.8274200  10.6738760   5.1626910  84.8567550  10.1897510  11.2935540
  85.5766670  10.6852800  10.9031650  84.6549370   9.5115400  10.6489410
  80.2386350  10.2606570  17.1804540  80.1723660   9.3402240  16.9262130
  79.6091490  10.3582010  17.8949180  83.0325880   5.9555120   3.7327090
  83.9205500   6.2672350   3.5578430  83.0030970   5.0827370   3.3407670
  74.1416970  10.8612530   9.1387960  74.6595640  10.0580790   9.0844850
  73.6900990  10.7991670   9.9804790  79.0286470  12.1278810   4.4115260
  79.3702170  12.8721040   3.9158580  78.1999180  12.4409930   4.7740090
  71.6261510   7.8273900  16.0513660  71.2676450   8.4927750  16.6387000
  71.3316070   6.9957450  16.4226280  74.8274630   8.2858140  18.9353210
  74.5274770   8.4315320  18.0381030  75.5985870   7.7263430  18.8426600
  80.1703080  13.0827140  16.9308340  80.1847620  12.1508100  16.7127250
  79.4628180  13.1686900  17.5698110  85.3040150   7.2666960   3.2006950
  85.2203870   7.6981180   2.3503390  86.0234340   7.7265310   3.6333770
  86.3814290   9.7234480  16.2776920  85.6562480  10.3163260  16.0806310
  86.9089750   9.7158020  15.4790290  86.3327400  14.1209220   5.9289080
  85.6903560  13.4664840   6.2032800  85.9458060  14.5264310   5.1529750
  81.9113880  11.4494650   9.7760770  82.2637700  10.8522780   9.1162140
  81.0276210  11.1238880   9.9469020  77.9977160  12.2092340   7.1831180
  78.6848290  12.7561550   7.5638770  77.2109580  12.7533070   7.2180790
  70.1369560   7.8265160   2.6748260  71.0064410   8.1089960   2.9584180
  69.6459880   8.6401030   2.5597070  77.3004370   9.2138370   6.7956540
  77.7567150  10.0243620   7.0216730  76.9492580   8.8961510   7.6275030
  79.6036980  14.7244710  14.0248840  80.2479200  14.9304090  14.7022260
  79.9666420  13.9633110  13.5719690  80.8769060  12.7277060  12.7426290
  81.5191290  12.0270220  12.8558460  81.4018410  13.5075500  12.5623180
  84.7224780  13.0125680   2.4665430  84.4962360  12.2956120   3.0590070
  84.3320980  12.7638120   1.6287180  82.6506680  13.5271960  15.9462350
  82.9862920  14.1138650  16.6240270  81.7307020  13.3964670  16.1760140
  70.5040810  17.0392540   3.2409890  70.8638450  17.6381880   2.5867160
  70.3633150  17.5852430   4.0144920  84.3041030  10.9297620   4.1279590
  84.0162730  11.3910310   4.9157470  85.0993200  10.4695390   4.3963810
  70.4882670  15.3047400  17.7152290  70.5973790  14.3642140  17.5747680
  69.8363230  15.5702150  17.0666020  78.4795260  13.5763290  19.1150410
  78.1592130  12.8572530  19.6596100  77.8053620  14.2518360  19.1886470
  76.5209430  14.4223740   4.0583560  76.5119530  15.1553430   3.4428070
  75.6007790  14.1755320   4.1510520  72.1216070   9.6438630   4.8030320
  71.5144020  10.3837530   4.8125620  72.5965420   9.7337990   3.9768520
  81.6948860   3.8089450  14.4787210  82.0629680   2.9884660  14.8066780
  80.8347060   3.8691340  14.8942860  85.0610890   2.7646390   5.2874770
  84.4324050   2.8692060   4.5733000  84.5662810   2.9843170   6.0768650
  79.5069030  14.4851980   2.7208750  79.6081010  14.2815970   1.7910730
  78.6070770  14.2310260   2.9256530  77.0294920   5.0432340   6.7032650
  76.3211070   5.5118680   7.1446260  77.3139400   4.3854350   7.3377840
  78.6550850   6.4629040  14.7025180  79.1536100   6.9374860  15.3677030
  78.7973800   5.5392560  14.9095210  81.0610350   1.7683000   8.1428440
  80.9378130   1.7869130   7.1937950  82.0094910   1.8161940   8.2626840
  78.1487140  17.0038300   7.4156420  78.4028640  16.9659690   6.4935790
  77.1999620  16.8771630   7.4084670  75.2329940   3.3517420   4.0783360
  76.0820470   3.7887570   4.0123550  74.8661210   3.6637680   4.9055420
  85.8617710   2.6797000  15.5453570  85.3591310   3.4202400  15.8847380
  86.6774370   3.0681000  15.2290360  84.1539720   7.9230180   8.9914930
  83.2129860   7.9380410   9.1662620  84.4683790   7.1366140   9.4375230
  74.1321360   9.6049780   2.5518890  74.8984630   9.4931140   3.1144320
  74.2096050   8.9087750   1.8995660  72.8268120   7.0374850   3.2351780
  72.9071710   6.0902360   3.3469180  73.7187870   7.3681730   3.3412440
  86.1565300  15.0939030  10.6669190  86.2812720  15.9170200  11.1393000
  87.0230860  14.8829760  10.3193340  73.6282830  17.1870240  10.3386320
  74.3645310  16.6385700  10.6094890  74.0123750  18.0526250  10.1992310
  70.5128310  13.2543810   6.2127830  69.5868090  13.4964950   6.2033240
  70.9784740  14.0818070   6.0912580  72.6341110  16.3716310  19.5271900
  73.4353840  16.6928360  19.9407300  72.1192930  16.0111890  20.2491810
  76.7385140  16.3600550   2.1611890  77.5313750  16.6489380   1.7093680
  76.2189490  15.9292720   1.4824370  81.4705740  12.4796180  19.4747310
  80.8643900  12.5027780  18.7343060  81.1659850  11.7479220  20.0114560
  82.9006110  16.2076470  18.0856720  83.8527860  16.1234490  18.0356960
  82.7534330  16.8718180  18.7590510  85.7915310  15.5870680   3.5848630
  85.5056820  15.1735820   2.7702810  85.5934860  16.5158390   3.4649150
  70.3538920   8.8589770  18.4707950  70.8577940   8.2797050  19.0424180
  69.6146340   9.1430000  19.0084320  77.4076860  10.2660760  18.0043470
  76.6422530  10.8345760  17.9198140  77.5892820   9.9736970  17.1111700
  80.4965270  10.6423990   2.6296230  79.9475370  11.0893290   3.2738970
  81.1184530  10.1373240   3.1533900  84.5500210  11.9966090  18.5618490
  85.2909680  12.3341850  18.0585950  83.7872890  12.1658150  18.0088260
  72.3862000   7.0019360  19.3658020  72.4267340   6.7033230  20.2743250
  73.2407500   7.4026970  19.2065540  76.1640390   9.6014910   4.5261530
  76.5856810   9.4354780   5.3692920  76.2891230   8.7915140   4.0316670
  74.3267810   5.5811460  17.3332510  73.7964270   5.0902410  16.7055850
  74.9955880   6.0095660  16.7990440  83.2245870  10.0480920  17.0973700
  83.6386890  10.2026000  17.9464120  82.2896870  10.1736140  17.2599480
  83.6968040   7.3877080  19.1012850  84.2788810   6.6329400  19.0133330
  83.8729810   7.9184520  18.3244330  74.8140110   2.5473830  17.4129800
  74.7196980   1.9294580  16.6880670  74.2337500   3.2740120  17.1859710
  77.9861100  10.0001400  15.0669630  78.4049210  10.8434130  14.8945870
  77.0669730  10.1373440  14.8376410  80.3225000   7.7317580  16.4507470
  80.4421210   7.1358720  17.1902310  81.1819000   7.7687270  16.0308770
  82.6612900   8.2854770  15.0269980  82.1348120   8.8097390  14.4235120
  83.0044240   8.9182160  15.6579710  75.8368520  16.3054410  16.1827360
  75.2989610  17.0300470  15.8636060  76.0902480  15.8284750  15.3924700
  77.0893770   4.2738930  17.7083290  77.6793460   3.9654780  18.3961110
  76.2714010   3.8018680  17.8643190  81.9087200   3.8904740  17.9416310
  81.2202720   3.2286280  17.8766300  82.6293220   3.4443010  18.3864770
  78.6930730  17.5405620  16.4414010  78.6189430  18.4440760  16.7486380
  77.7909570  17.2217520  16.4136080  79.2416060  16.7064130   4.0640370
  80.1366850  17.0449100   4.0859130  79.2733690  15.9843540   3.4364650
  72.8812220  12.0791180   2.2927370  73.3187090  12.6220850   2.9484950
  73.3659950  11.2538130   2.3023710  70.0958020  14.8680210   9.7447630
  70.4261030  14.0001270   9.5126270  70.5249020  15.0738730  10.5752590
  74.6919940  13.1989220   7.4049600  74.3915480  13.0754190   8.3053510
  74.5857430  12.3397810   6.9965330  70.5848230  15.7350800  12.4829260
  70.1479220  15.9151600  13.3153410  71.1525910  16.4925420  12.3410980
  86.2210410  15.2367800  16.7706570  85.6212400  15.2960360  16.0270490
  86.3504310  14.2972780  16.9003420  87.4611860  12.9785620   2.1076280
  86.6304820  13.0462270   2.5783510  87.6383690  13.8689740   1.8043140
  86.9168320   9.7233100   4.6110480  87.6787230  10.2929750   4.7170170
  86.9322690   9.1560300   5.3818790  70.4172660   8.2471030   8.8418140
  69.7621500   7.9782670   8.1977840  71.2550610   8.1375510   8.3920120
  87.9228290  10.5783200   9.4552410  88.2937120   9.7950520   9.0488380
  88.5630220  11.2672300   9.2769710  84.9062050  11.9619780  14.8682730
  84.0921890  12.3916940  15.1308520  85.3136250  12.5738190  14.2551780
  86.9687490  10.0167470   1.7683000  87.2436330  10.9246350   1.6402220
  86.7798230   9.9530000   2.7044990  83.3663100   3.0412320   3.0636630
  83.7847980   2.8543300   2.2233290  83.0599160   2.1891370   3.3739560
  86.8652830   7.9536460   6.7612430  86.4896430   7.1864390   6.3293720
  86.1355950   8.3359160   7.2487360  71.4548590   8.6323600  13.3821480
  71.8221630   8.5451000  14.2617500  70.8859410   7.8690150  13.2828340
  86.2552450   7.1007980  16.3951950  86.0238540   6.8720730  15.4949900
  86.5157000   8.0207530  16.3496840  71.0064590   5.5432690  17.2879900
  70.1120640   5.5099450  17.6273610  71.5462140   5.7419480  18.0531150
  84.6940520   2.3264410  19.1731650  85.5710700   2.3347810  19.5565650
  84.7061360   1.5895250  18.5624000  69.6310740   5.4569960   4.7843470
  68.7274820   5.7200160   4.6095130  70.1151360   5.7281130   4.0043430
  86.1403790   6.1793950  10.0619670  86.6641270   5.6856600   9.4309840
  86.7263210   6.3144310  10.8067240  86.3193510   6.2633820  13.5839220
  85.3696220   6.2297360  13.6984210  86.5006520   7.1733930  13.3488990
  72.1737950   4.5135500   2.6937850  72.8829650   4.0918720   2.2085130
  71.4577890   4.5810730   2.0621200  85.6303760   5.4367300   6.0012080
  86.1262880   5.2038170   6.7860960  85.4319830   4.5979140   5.5849720
  87.0590920   4.0728250   8.5349760  86.9490200   3.9184290   9.4732030
  87.8198510   3.5449190   8.2925170  87.9481190   1.9036170   1.7755900
  88.8730500   1.7717350   1.5674190  87.9256980   1.9828990   2.7292350
  88.0219680   2.6746830   4.4012610  87.2271180   2.6091950   4.9305520
  88.2262960   3.6097470   4.3897960  84.9638100  16.7138380   8.3951000
  85.5597170  16.3922950   7.7185420  85.2216250  16.2410200   9.1864270
  72.8700670  13.1456290  18.5441630  72.8270300  12.7749200  19.4256090
  73.0011680  14.0833860  18.6843450  76.5706700  14.7015880  14.1451350
  76.3298060  14.9690440  13.2581870  77.5109340  14.8721610  14.2002210
  87.8310860  16.7210260  14.9461990  87.3369140  17.1179130  14.2289120
  87.2224150  16.0959470  15.3399270  72.7088700  16.0918540  15.6639410
  72.1149020  15.9603240  16.4029450  72.7012540  15.2556680  15.1981510
  85.5150310  17.3633680  12.2248730  85.0553280  18.1149490  11.8506750
  84.8862770  16.6440150  12.1663530  72.3400930  13.4576920  14.6147450
  71.6134990  12.8382210  14.5473400  72.4010080  13.8517530  13.7445530
  75.9446030  15.6721920  11.3996860  76.4611050  15.0609280  10.8745120
  76.5943410  16.1750700  11.8907870  78.6841530  16.5630410  12.2265840
  78.9719340  16.3084710  11.3498850  79.1964750  16.0107770  12.8171410
  70.6230930  16.7751310   7.8244210  70.4552970  16.1421990   8.5226100
  69.7565440  16.9810710   7.4738400  77.7872760   2.7207360   8.3178380
  76.9747270   2.3464250   7.9774260  78.2914400   1.9652440   8.6199570
  72.2293630  15.4684540   5.2694350  71.7041250  15.8492570   4.5656310
  72.1538210  16.0935310   5.9904060  78.7513890  17.4846510  19.5934040
  79.6781200  17.2490780  19.6370000  78.7364320  18.3118510  19.1120070
  86.9858950  17.0272080   6.5908290  87.1611140  16.3409820   5.9469210
  86.2880520  17.5519130   6.1984960  74.8286600  17.4166920   4.1443600
  75.5605420  17.1326200   3.5967490  75.0880270  17.1780200   5.0342980
  73.9901390  13.5331650   4.1489930  73.3610270  14.0016750   4.6975760
  74.1049220  12.6880870   4.5836120  85.3191450  16.7116370  19.4175080
  86.1116770  16.2165600  19.2101040  85.6124600  17.3906510  20.0250690
  62.6707620  82.6811270  65.3965090  62.5901670  81.7665880  65.1256800
  62.2572040  83.1778340  64.6904800  60.8025660  84.4590290  67.2774360
  60.0267760  83.9790730  67.5672930  61.4538590  83.7795940  67.1030520
  54.8191490  84.7710100  68.1550120  53.9876370  84.5158810  68.5546630
  55.4272470  84.8420870  68.8908040  64.8233090  88.8650480  66.0573490
  64.3614620  88.0937720  66.3860660  65.6358640  88.8916550  66.5625940
  54.7992750  88.8050190  68.3508140  55.1020790  87.9147930  68.1718360
  55.5436340  89.3620410  68.1230390  53.2283440  79.7311990  61.9392510
  52.3400140  80.0727960  61.8372390  53.5124630  79.5312310  61.0473340
  51.1916450  82.3317640  67.8232210  51.7632560  81.5639840  67.8235850
  51.1917990  82.6306400  66.9138820  60.2434650  87.1347480  67.2844520
  60.1742930  86.1937420  67.1233650  61.0054510  87.2248890  67.8567090
  52.4341320  77.7402000  69.6101140  52.2544160  76.8427750  69.8903900
  52.0321400  78.2873870  70.2848090  61.2739820  79.9417860  67.5113450
  61.6504640  79.0689740  67.3987120  61.1759330  80.2776560  66.6203890
  55.4044830  78.3143490  62.9730890  55.5111580  79.2147220  63.2799650
  54.4937190  78.2661460  62.6825540  65.0563940  77.4368300  64.4441790
  65.8773560  76.9464870  64.4867270  65.0898020  78.0265960  65.1973630
  53.0527990  80.2362500  68.2183480  53.7338100  80.5000870  68.8370880
  52.7376040  79.3963370  68.5521490  57.2452560  81.2829860  67.3056070
  57.7530780  81.7810830  67.9461090  57.7765800  80.5065060  67.1295430
  69.3463490  79.4535050  71.0085420  68.6415660  79.8416760  70.4900530
  69.6121410  80.1485340  71.6106350  55.5288660  75.9228420  71.5719490
  55.5307100  76.4400810  70.7665390  54.6992970  75.4458600  71.5489420
  61.9159750  86.0347730  63.0709390  61.2977020  86.4997180  62.5072110
  62.4283000  86.7275210  63.4878900  56.7791510  85.5623600  69.7492990
  56.4460890  86.1892520  70.3914060  56.9558190  86.0885480  68.9694660
  65.2925420  79.3768680  67.2169330  64.5880990  79.6653570  67.7972440
  65.6537580  80.1868790  66.8568890  55.2103990  77.6338380  69.5789940
  55.5520800  78.4780430  69.2843810  54.2719800  77.7822120  69.6955280
  55.9910610  87.5304400  71.5642170  56.6084610  88.2055480  71.2826620
  55.1303730  87.9392380  71.4729670  51.2842950  86.7204260  60.4449020
  50.9070930  87.2091360  59.7133920  51.5416020  87.3929540  61.0755550
  66.9088200  88.9943810  69.4796810  66.2251720  89.6642920  69.4713480
  67.4482490  89.1924460  68.7141670  68.3612340  78.8223470  67.6078540
  67.4137250  78.8562450  67.7393970  68.6862330  79.6362420  67.9927900
  58.8931880  75.1220650  65.9034530  59.2006860  74.5667540  65.1870030
  57.9632580  75.2565110  65.7207520  65.7392360  87.5604160  63.2832160
  65.6288690  86.6178490  63.4081580  65.7360610  87.9219800  64.1694920
  63.8432380  85.7417780  69.5224600  64.2601170  85.5277890  68.6878060
  64.5672200  85.9990570  70.0933220  61.2812640  83.1869480  62.6394650
  60.3541920  83.1206860  62.8683120  61.4337460  84.1249610  62.5249890
  61.2681720  79.4586480  59.6361810  60.3285390  79.6200440  59.7214270
  61.5864980  80.1772160  59.0897800  67.7894480  84.1405000  69.6140840
  66.9613110  84.2098090  69.1390970  68.3844960  84.7259310  69.1456670
  65.3109930  84.7489780  63.1429900  64.6922350  84.4109330  62.4956200
  65.2934380  84.1049540  63.8509090  64.7536490  80.9274320  70.5595710
  64.3407670  81.7528030  70.8135700  64.0212440  80.3419360  70.3672070
  56.8869280  83.7134220  65.4214380  56.4826280  83.0011470  64.9260280
  56.9732400  83.3687460  66.3102420  57.3550980  87.4001780  67.5853590
  57.0579270  86.7947250  66.9061370  58.3050800  87.4379090  67.4742950
  55.5997900  80.4877430  69.2013420  56.1512490  80.5972770  68.4266670
  56.1141410  80.8615030  69.9168650  56.4469410  87.1383470  74.2361390
  55.5497940  87.3623440  74.4834790  56.4722280  87.2618410  73.2872790
  63.4874630  83.9876590  60.1502650  63.9267910  83.1499020  60.0040470
  64.2003050  84.6205990  60.2366790  55.2740630  84.0096790  72.8118760
  55.1348400  84.8819590  73.1806160  54.3921990  83.6669600  72.6666700
  61.5970010  88.9272660  64.1183890  62.0365920  89.6696990  63.7039280
  61.5356900  89.1699230  65.0422850  57.0720980  89.9518490  75.0203910
  57.0436410  90.3561440  74.1532340  56.9085950  89.0228850  74.8575510
  67.0691770  75.2419400  58.4643690  66.7564430  75.3346230  59.3642760
  67.8304240  75.8200430  58.4141120  53.5873910  82.6079200  62.9221030
  53.4671510  83.3341290  62.3102300  53.2774800  81.8382110  62.4448940
  51.2259280  85.7794340  68.7289670  51.3039700  85.9143110  67.7845390
  51.8400960  85.0710230  68.9217790  52.4706910  87.4794530  65.1395850
  52.0634990  87.6209120  64.2849450  53.3619920  87.1954690  64.9367060
  68.4269050  87.9258440  73.4768090  68.5532110  87.6870320  72.5585270
  68.4690430  87.0942980  73.9490170  63.9666320  89.4229340  60.0344900
  63.2731480  89.4206630  59.3747180  64.7089180  88.9988660  59.6039070
  68.2793060  79.9790900  74.4417830  67.6637330  80.4870570  73.9133290
  67.9589480  79.0789230  74.3843770  51.2818800  86.8208510  71.2684130
  51.4449840  86.3513870  70.4503500  51.7471250  86.3132070  71.9332970
  56.0537570  75.9514270  66.3044700  55.6105720  76.7323810  65.9729220
  56.6122560  76.2744160  67.0115640  60.3407380  78.8182790  71.9080020
  59.8786750  79.0265810  72.7199960  59.9385490  78.0042140  71.6050690
  65.3411890  80.0391740  73.0376680  64.4905480  79.7397490  73.3585750
  65.1813680  80.2833750  72.1260500  62.4361600  81.5393490  75.1375470
  62.7615010  80.7057240  74.7977700  63.2241930  82.0622010  75.2853800
  59.1696390  75.5724970  61.1850530  58.5450570  75.5684840  61.9103840
  59.0826510  74.7055930  60.7886500  58.0913470  76.4961600  68.1634300
  58.3885800  77.4024430  68.0826320  58.6399030  76.0080380  67.5493870
  55.8451790  81.0747840  64.0325950  55.6192710  80.8585010  64.9372570
  55.0644320  81.5076300  63.6871920  63.0749550  81.0811210  62.6316600
  62.4758440  81.8047010  62.4480220  63.6229160  81.0187990  61.8493050
  58.2851000  81.9733420  74.6986220  58.1894600  81.0328150  74.5486620
  59.1282980  82.1948490  74.3034290  61.6814420  79.7174750  64.6619880
  62.0743990  80.0346950  63.8488570  62.0431270  78.8386630  64.7764400
  53.4161540  78.3847090  72.8520000  53.0224930  79.2322300  73.0592780
  52.7279940  77.7473460  73.0428640  50.7178590  76.3075550  66.8850080
  50.4291640  76.8778410  67.5975060  51.4624350  75.8280000  67.2481310
  50.9048820  80.2495670  58.0952800  50.8223490  81.1926430  58.2367790
  50.5531880  80.1070580  57.2165150  62.2669560  82.3080500  68.7570660
  61.5350680  82.8167310  69.1060760  61.8693900  81.4910480  68.4559440
  58.7046950  78.9834700  67.1623150  58.7083010  78.5424650  66.3127690
  59.5998070  79.3052030  67.2694970  54.5549330  78.8661190  66.1217360
  54.2149380  79.3436420  66.8784410  53.7926650  78.4126310  65.7618460
  58.7667100  79.9846780  60.1529910  58.8879920  79.9433260  61.1015730
  58.3815610  80.8470930  59.9976640  62.7295470  77.7614180  68.1693600
  62.7468210  78.2122830  69.0135450  62.4811050  76.8619820  68.3827040
  57.7788600  82.2947920  59.5513210  57.2105500  81.8466170  58.9249120
  58.4877600  82.6540700  59.0178360  66.1566220  75.1746360  74.0079980
  66.4811990  74.4436020  74.5337960  66.1922730  74.8560000  73.1060970
  52.8557780  86.1959940  73.4279940  52.4712570  85.5553610  74.0262900
  53.1669970  86.8996060  73.9974670  59.0054920  83.0436480  68.9088560
  59.3725050  82.5695050  69.6549900  58.8159980  83.9178050  69.2496900
  51.8695410  77.7880170  65.0382030  51.5842330  77.4235840  65.8760650
  51.8074270  77.0560630  64.4245170  56.7954290  82.0845120  71.2272770
  56.4911360  82.9637100  71.4523130  57.7500750  82.1444910  71.2630210
  55.3236080  86.2906110  61.8239620  54.5498340  85.7503730  61.6638340
  56.0530710  85.7712720  61.4857380  66.0824060  85.2871470  67.6166010
  66.8023180  85.7826760  67.2262120  65.8805880  84.6089360  66.9719880
  61.5434000  76.6809430  61.7595400  60.7298610  76.1822600  61.6840710
  61.3495950  77.5207680  61.3431750  61.4642860  85.3580530  73.5035010
  61.3980170  84.4376200  73.2492600  60.8348000  85.4555970  74.2179650
  64.2582390  81.0529080  60.0557560  65.1462010  81.3646310  59.8808900
  64.2287480  80.1801330  59.6638140  55.3673480  85.9586490  65.4618430
  55.8852150  85.1554750  65.4075320  54.9157500  85.8965630  66.3035260
  60.2542980  87.2252770  60.7345730  60.5958680  87.9695000  60.2389050
  59.4255690  87.5383890  61.0970560  52.8518020  82.9247860  72.3744130
  52.4932960  83.5901710  72.9617470  52.5572580  82.0931410  72.7456750
  56.0531140  83.3832100  75.2583680  55.7531280  83.5289280  74.3611500
  56.8242380  82.8237390  75.1657070  61.3959590  88.1801100  73.2538810
  61.4104130  87.2482060  73.0357720  60.6884690  88.2660860  73.8928580
  66.5296660  82.3640920  59.5237420  66.4460380  82.7955140  58.6733860
  67.2490850  82.8239270  59.9564240  67.6070800  84.8208440  72.6007390
  66.8818990  85.4137220  72.4036780  68.1346260  84.8131980  71.8020760
  67.5583910  89.2183180  62.2519550  66.9160070  88.5638800  62.5263270
  67.1714570  89.6238270  61.4760220  63.1370390  86.5468610  66.0991240
  63.4894210  85.9496740  65.4392610  62.2532720  86.2212840  66.2699490
  59.2233670  87.3066300  63.5061650  59.9104800  87.8535510  63.8869240
  58.4366090  87.8507030  63.5411260  51.3626070  82.9239120  58.9978730
  52.2320920  83.2063920  59.2814650  50.8716390  83.7374990  58.8827540
  58.5260880  84.3112330  63.1187010  58.9823660  85.1217580  63.3447200
  58.1749090  83.9935470  63.9505500  60.8293490  89.8218670  70.3479310
  61.4735710  90.0278050  71.0252730  61.1922930  89.0607070  69.8950160
  54.4272660  74.6549980  63.5909530  54.2987290  74.6467880  64.5394450
  53.6034680  74.9933070  63.2400540  62.1025570  87.8251020  69.0656760
  62.7447800  87.1244180  69.1788930  62.6274920  88.6049460  68.8853650
  65.9481290  88.1099640  58.7895900  65.7218870  87.3930080  59.3820540
  65.5577490  87.8612080  57.9517650  63.8763190  88.6245920  72.2692820
  64.2119430  89.2112610  72.9470740  62.9563530  88.4938630  72.4990610
  51.4266590  76.4141100  73.0516230  50.7125110  76.6138020  73.6568840
  51.8461630  75.6380670  73.4231030  65.5297540  86.0271580  60.4510060
  65.2419240  86.4884270  61.2387940  66.3249710  85.5669350  60.7194280
  59.7051770  88.6737250  75.4380880  59.3848640  87.9546490  75.9826570
  59.0310130  89.3492320  75.5116940  57.7465940  89.5197700  60.3814030
  57.7376040  90.2527390  59.7658540  56.8264300  89.2729280  60.4740990
  53.3472580  84.7412590  61.1260790  52.7400530  85.4811490  61.1356090
  53.8221930  84.8311950  60.2998990  62.9205370  78.9063410  70.8017680
  63.2886190  78.0858620  71.1297250  62.0603570  78.9665300  71.2173330
  66.2867400  77.8620350  61.6105240  65.6580560  77.9666020  60.8963470
  65.7919320  78.0817130  62.3999120  60.7325540  89.5825940  59.0439220
  60.8337520  89.3789930  58.1141200  59.8327280  89.3284220  59.2487000
  58.2551430  80.1406300  63.0263120  57.5467580  80.6092640  63.4676730
  58.5395910  79.4828310  63.6608310  59.8807360  81.5603000  71.0255650
  60.3792610  82.0348820  71.6907500  60.0230310  80.6366520  71.2325680
  62.2866860  76.8656960  64.4658910  62.1634640  76.8843090  63.5168420
  63.2351420  76.9135900  64.5857310  56.4586450  78.4491380  60.4013830
  57.3076980  78.8861530  60.3354020  56.0917720  78.7611640  61.2285890
  67.0874220  77.7770960  71.8684040  66.5847820  78.5176360  72.2077850
  67.9030880  78.1654960  71.5520830  65.3796230  83.0204140  65.3145400
  64.4386370  83.0354370  65.4893090  65.6940300  82.2340100  65.7605700
  55.3577870  84.7023740  58.8749360  56.1241140  84.5905100  59.4374790
  55.4352560  84.0061710  58.2226130  54.0524630  82.1348810  59.5582250
  54.1328220  81.1876320  59.6699650  54.9444380  82.4655690  59.6642910
  51.7384820  88.3517770  62.5358300  50.8124600  88.5938910  62.5263710
  52.2041250  89.1792030  62.4143050  51.5795430  83.9563730  74.7938420
  52.0834450  83.3771010  75.3654650  50.8402850  84.2403960  75.3314790
  58.4819050  86.6777920  58.3484710  58.3769690  86.0630270  59.0746090
  58.3143270  86.1543810  57.5647720  58.6333370  85.3634720  74.3273940
  57.8679040  85.9319720  74.2428610  58.8149330  85.0710930  73.4342170
  61.7221780  85.7397950  58.9526700  61.1731880  86.1867250  59.5969440
  62.3441040  85.2347200  59.4764370  65.7756720  87.0940050  74.8848960
  66.5166190  87.4315810  74.3816420  65.0129400  87.2632110  74.3318730
  57.3896900  84.6988870  60.8492000  57.8113320  84.5328740  61.6923390
  57.5147740  83.8889100  60.3547140  55.5524320  80.6785420  73.6562980
  55.0220780  80.1876370  73.0286320  56.2212390  81.1069620  73.1220910
  59.9024540  83.7226480  58.0969100  60.4230200  83.0075500  57.7310250
  60.5492940  84.3612350  58.3969610  64.4502380  85.1454880  73.4204170
  64.8643400  85.2999960  74.2694590  63.5153380  85.2710100  73.5829950
  64.9224550  82.4851040  75.4243320  65.5045320  81.7303360  75.3363800
  65.0986320  83.0158480  74.6474800  56.0396620  77.6447790  73.7360270
  55.9453490  77.0268540  73.0111140  55.4594010  78.3714080  73.5090180
  58.8058060  76.2021030  70.7687660  58.3575360  76.2245290  69.9233210
  58.1723260  75.8040050  71.3657960  59.2117610  85.0975360  71.3900100
  59.6305720  85.9408090  71.2176340  58.2926240  85.2347400  71.1606880
  61.5481510  82.8291540  72.7737940  61.6677720  82.2332680  73.5132780
  62.4075510  82.8661230  72.3539240  63.8869410  83.3828730  71.3500450
  63.3604630  83.9071350  70.7465590  64.2300750  84.0156120  71.9810180
  56.2855800  80.7722100  57.7950160  56.0844860  79.9089460  58.1563500
  56.1147850  80.6855460  56.8571760  58.3150280  79.3712890  74.0313760
  58.9049970  79.0628740  74.7191580  57.4970520  78.8992640  74.1873660
  63.1343710  78.9878700  74.2646780  62.4459230  78.3260240  74.1996770
  63.8549730  78.5416970  74.7095240  63.7644110  75.5830330  60.3237040
  64.0446400  74.7398230  60.6796460  62.9909840  75.8153440  60.8375790
  55.0838600  77.8722720  57.7828040  55.3864500  77.8790150  56.8747190
  55.8233190  77.5220580  58.2795700  58.3023530  76.8157340  58.7684240
  57.9545530  76.1381330  58.1886690  58.5036300  76.3546850  59.5827630
  54.1068730  87.1765140  58.6157840  54.5443600  87.7194810  59.2715420
  54.5916460  86.3512090  58.6254180  51.3214530  89.9654170  66.0678100
  51.6517540  89.0975230  65.8356740  51.7505530  90.1712690  66.8983060
  55.9176450  88.2963180  63.7280070  55.6171990  88.1728150  64.6283980
  55.8113940  87.4371770  63.3195800  67.4466920  90.3341760  73.0937040
  66.8468910  90.3934320  72.3500960  67.5760820  89.3946740  73.2233890
  68.6868370  88.0759580  58.4306750  67.8561330  88.1436230  58.9013980
  68.8640200  88.9663700  58.1273610  68.1424830  84.8207060  60.9340950
  68.9043740  85.3903710  61.0400640  68.1579200  84.2534260  61.7049260
  51.6429170  83.3444990  65.1648610  50.9878010  83.0756630  64.5208310
  52.4807120  83.2349470  64.7150590  69.1484800  85.6757160  65.7782880
  69.5193630  84.8924480  65.3718850  69.7886730  86.3646260  65.6000180
  66.1318560  87.0593740  71.1913200  65.3178400  87.4890900  71.4538990
  66.5392760  87.6712150  70.5782250  68.1944000  85.1141430  58.0913470
  68.4692840  86.0220310  57.9632690  68.0054740  85.0503960  59.0275460
  64.5919610  78.1386280  59.3867100  65.0104490  77.9517260  58.5463760
  64.2855670  77.2865330  59.6970030  68.0909340  83.0510420  63.0842900
  67.7152940  82.2838350  62.6524190  67.3612460  83.4333120  63.5717830
  52.6805100  83.7297560  69.7051950  53.0478140  83.6424960  70.5847970
  52.1115920  82.9664110  69.6058810  67.4808960  82.1981940  72.7182420
  67.2495050  81.9694690  71.8180370  67.7413510  83.1181490  72.6727310
  52.2321100  80.6406650  73.6110370  51.3377150  80.6073410  73.9504080
  52.7718650  80.8393440  74.3761620  65.9197030  77.4238370  75.4962120
  66.7967210  77.4321770  75.8796120  65.9317870  76.6869210  74.8854470
  50.8567250  80.5543920  61.1073940  49.9531330  80.8174120  60.9325600
  51.3407870  80.8255090  60.3273900  67.3660300  81.2767910  66.3850140
  67.8897780  80.7830560  65.7540310  67.9519720  81.4118270  67.1297710
  67.5450020  81.3607780  69.9069690  66.5952730  81.3271320  70.0214680
  67.7263030  82.2707890  69.6719460  53.3994460  79.6109460  59.0168320
  54.1086160  79.1892680  58.5315600  52.6834400  79.6784690  58.3851670
  53.0468620  75.6648790  58.0570970  53.7696750  76.2057730  58.3752190
  53.3193140  75.3912210  57.1812510  66.8560270  80.5341260  62.3242550
  67.3519390  80.3012130  63.1091430  66.6576340  79.6953100  61.9080190
  52.7360810  74.9154980  67.9593590  53.3837000  74.3652360  67.5188750
  53.1562650  75.1698130  68.7809400  68.2847430  79.1702210  64.8580230
  68.1746710  79.0158250  65.7962500  69.0455020  78.6423150  64.6155640
  66.6313150  75.1096340  71.3163230  67.2685370  75.7230480  71.6822420
  66.7788040  75.1457000  70.3712460  69.1737700  77.0010130  58.0986370
  70.0987010  76.8691310  57.8904660  69.1513490  77.0802950  59.0522820
  69.2476190  77.7720790  60.7243080  68.4527690  77.7065910  61.2535990
  69.4519470  78.7071430  60.7128430  52.4892810  75.0710650  70.7018910
  52.1407630  75.5274470  71.4677090  52.1580510  74.1767780  70.7841340
  54.0957180  88.2430250  74.8672100  54.0526810  87.8723160  75.7486560
  54.2268190  89.1807820  75.0073920  57.7963210  89.7989840  70.4681820
  57.5554570  90.0664400  69.5812340  58.7365850  89.9695570  70.5232680
  60.0017630  76.2622530  74.2238330  59.9406520  76.8544360  74.9733740
  60.9418010  76.1548490  74.0788590  62.6392190  75.9192590  73.8630620
  63.2532600  76.2371880  73.2011700  63.1841750  75.4341180  74.4826480
  53.1613450  74.5986850  73.9769680  53.7096440  74.4174900  73.2135790
  53.2268760  73.8080960  74.5125990  63.3800230  74.4824730  70.1899910
  62.5060070  74.8159840  69.9872840  63.2710980  74.0097910  71.0151780
  64.2872210  76.6895600  71.5741630  63.9585570  75.8747360  71.1943360
  65.2354510  76.6465410  71.4507320  53.5657440  88.5550880  70.9377920
  52.8391500  87.9356170  70.8703870  53.6266590  88.9491490  70.0676000
  61.1275050  75.3994570  69.1292820  60.3446840  75.8740070  69.4089580
  60.8337980  74.4949400  69.0206000  65.6796120  76.1017670  67.1741910
  66.1204210  76.0462770  66.3263510  65.4103710  77.0175680  67.2452090
  67.5434690  75.7332910  65.1850730  67.4823090  74.7894130  65.0381750
  68.3226720  75.8413000  65.7304190  52.4715460  75.7042050  61.6506540
  53.2294820  75.8170930  61.0770570  52.0092630  76.5411250  61.6049970
  59.0129270  77.8181320  64.6408850  58.2003780  77.4438210  64.3004730
  59.5170910  77.0626400  64.9430040  63.5154250  74.4823770  65.8791920
  64.1183620  75.0543980  66.3540440  62.7747240  75.0463210  65.6565820
  66.6588850  74.8845330  61.1532200  66.8539480  75.7828780  61.4199630
  65.8718720  74.6532410  61.6465150  54.8440610  76.2306100  60.1908510
  55.3733370  75.4435900  60.0616460  55.4768930  76.9097290  60.4244040
  57.0378450  75.9681240  63.2453900  56.4081190  75.2668550  63.4124030
  56.4983590  76.7285370  63.0287060  57.1634010  75.2465220  75.6806390
  56.8818280  75.7498820  74.9167210  57.5453710  74.4486970  75.3148520
  55.2157900  88.6305610  60.4720400  54.5866780  89.0990710  61.0206230
  55.3305730  87.7854830  60.9066590  62.6707620  82.6811270  46.6221600
  62.5901670  81.7665880  46.3513310  62.2572040  83.1778340  45.9161310
  60.8025660  84.4590290  48.5030870  60.0267760  83.9790730  48.7929440
  61.4538590  83.7795940  48.3287030  54.8191490  84.7710100  49.3806630
  53.9876370  84.5158810  49.7803140  55.4272470  84.8420870  50.1164550
  64.8233090  88.8650480  47.2830000  64.3614620  88.0937720  47.6117170
  65.6358640  88.8916550  47.7882450  54.7992750  88.8050190  49.5764650
  55.1020790  87.9147930  49.3974870  55.5436340  89.3620410  49.3486900
  53.2283440  79.7311990  43.1649020  52.3400140  80.0727960  43.0628900
  53.5124630  79.5312310  42.2729850  51.1916450  82.3317640  49.0488720
  51.7632560  81.5639840  49.0492360  51.1917990  82.6306400  48.1395330
  60.2434650  87.1347480  48.5101030  60.1742930  86.1937420  48.3490160
  61.0054510  87.2248890  49.0823600  52.4341320  77.7402000  50.8357650
  52.2544160  76.8427750  51.1160410  52.0321400  78.2873870  51.5104600
  61.2739820  79.9417860  48.7369960  61.6504640  79.0689740  48.6243630
  61.1759330  80.2776560  47.8460400  55.4044830  78.3143490  44.1987400
  55.5111580  79.2147220  44.5056160  54.4937190  78.2661460  43.9082050
  65.0563940  77.4368300  45.6698300  65.8773560  76.9464870  45.7123780
  65.0898020  78.0265960  46.4230140  53.0527990  80.2362500  49.4439990
  53.7338100  80.5000870  50.0627390  52.7376040  79.3963370  49.7778000
  57.2452560  81.2829860  48.5312580  57.7530780  81.7810830  49.1717600
  57.7765800  80.5065060  48.3551940  69.3463490  79.4535050  52.2341930
  68.6415660  79.8416760  51.7157040  69.6121410  80.1485340  52.8362860
  55.5288660  75.9228420  52.7976000  55.5307100  76.4400810  51.9921900
  54.6992970  75.4458600  52.7745930  61.9159750  86.0347730  44.2965900
  61.2977020  86.4997180  43.7328620  62.4283000  86.7275210  44.7135410
  56.7791510  85.5623600  50.9749500  56.4460890  86.1892520  51.6170570
  56.9558190  86.0885480  50.1951170  65.2925420  79.3768680  48.4425840
  64.5880990  79.6653570  49.0228950  65.6537580  80.1868790  48.0825400
  55.2103990  77.6338380  50.8046450  55.5520800  78.4780430  50.5100320
  54.2719800  77.7822120  50.9211790  55.9910610  87.5304400  52.7898680
  56.6084610  88.2055480  52.5083130  55.1303730  87.9392380  52.6986180
  51.2842950  86.7204260  41.6705530  50.9070930  87.2091360  40.9390430
  51.5416020  87.3929540  42.3012060  66.9088200  88.9943810  50.7053320
  66.2251720  89.6642920  50.6969990  67.4482490  89.1924460  49.9398180
  68.3612340  78.8223470  48.8335050  67.4137250  78.8562450  48.9650480
  68.6862330  79.6362420  49.2184410  58.8931880  75.1220650  47.1291040
  59.2006860  74.5667540  46.4126540  57.9632580  75.2565110  46.9464030
  65.7392360  87.5604160  44.5088670  65.6288690  86.6178490  44.6338090
  65.7360610  87.9219800  45.3951430  63.8432380  85.7417780  50.7481110
  64.2601170  85.5277890  49.9134570  64.5672200  85.9990570  51.3189730
  61.2812640  83.1869480  43.8651160  60.3541920  83.1206860  44.0939630
  61.4337460  84.1249610  43.7506400  61.2681720  79.4586480  40.8618320
  60.3285390  79.6200440  40.9470780  61.5864980  80.1772160  40.3154310
  67.7894480  84.1405000  50.8397350  66.9613110  84.2098090  50.3647480
  68.3844960  84.7259310  50.3713180  65.3109930  84.7489780  44.3686410
  64.6922350  84.4109330  43.7212710  65.2934380  84.1049540  45.0765600
  64.7536490  80.9274320  51.7852220  64.3407670  81.7528030  52.0392210
  64.0212440  80.3419360  51.5928580  56.8869280  83.7134220  46.6470890
  56.4826280  83.0011470  46.1516790  56.9732400  83.3687460  47.5358930
  57.3550980  87.4001780  48.8110100  57.0579270  86.7947250  48.1317880
  58.3050800  87.4379090  48.6999460  55.5997900  80.4877430  50.4269930
  56.1512490  80.5972770  49.6523180  56.1141410  80.8615030  51.1425160
  56.4469410  87.1383470  55.4617900  55.5497940  87.3623440  55.7091300
  56.4722280  87.2618410  54.5129300  63.4874630  83.9876590  41.3759160
  63.9267910  83.1499020  41.2296980  64.2003050  84.6205990  41.4623300
  55.2740630  84.0096790  54.0375270  55.1348400  84.8819590  54.4062670
  54.3921990  83.6669600  53.8923210  61.5970010  88.9272660  45.3440400
  62.0365920  89.6696990  44.9295790  61.5356900  89.1699230  46.2679360
  57.0720980  89.9518490  56.2460420  57.0436410  90.3561440  55.3788850
  56.9085950  89.0228850  56.0832020  67.0691770  75.2419400  39.6900200
  66.7564430  75.3346230  40.5899270  67.8304240  75.8200430  39.6397630
  53.5873910  82.6079200  44.1477540  53.4671510  83.3341290  43.5358810
  53.2774800  81.8382110  43.6705450  51.2259280  85.7794340  49.9546180
  51.3039700  85.9143110  49.0101900  51.8400960  85.0710230  50.1474300
  52.4706910  87.4794530  46.3652360  52.0634990  87.6209120  45.5105960
  53.3619920  87.1954690  46.1623570  68.4269050  87.9258440  54.7024600
  68.5532110  87.6870320  53.7841780  68.4690430  87.0942980  55.1746680
  63.9666320  89.4229340  41.2601410  63.2731480  89.4206630  40.6003690
  64.7089180  88.9988660  40.8295580  68.2793060  79.9790900  55.6674340
  67.6637330  80.4870570  55.1389800  67.9589480  79.0789230  55.6100280
  51.2818800  86.8208510  52.4940640  51.4449840  86.3513870  51.6760010
  51.7471250  86.3132070  53.1589480  56.0537570  75.9514270  47.5301210
  55.6105720  76.7323810  47.1985730  56.6122560  76.2744160  48.2372150
  60.3407380  78.8182790  53.1336530  59.8786750  79.0265810  53.9456470
  59.9385490  78.0042140  52.8307200  65.3411890  80.0391740  54.2633190
  64.4905480  79.7397490  54.5842260  65.1813680  80.2833750  53.3517010
  62.4361600  81.5393490  56.3631980  62.7615010  80.7057240  56.0234210
  63.2241930  82.0622010  56.5110310  59.1696390  75.5724970  42.4107040
  58.5450570  75.5684840  43.1360350  59.0826510  74.7055930  42.0143010
  58.0913470  76.4961600  49.3890810  58.3885800  77.4024430  49.3082830
  58.6399030  76.0080380  48.7750380  55.8451790  81.0747840  45.2582460
  55.6192710  80.8585010  46.1629080  55.0644320  81.5076300  44.9128430
  63.0749550  81.0811210  43.8573110  62.4758440  81.8047010  43.6736730
  63.6229160  81.0187990  43.0749560  58.2851000  81.9733420  55.9242730
  58.1894600  81.0328150  55.7743130  59.1282980  82.1948490  55.5290800
  61.6814420  79.7174750  45.8876390  62.0743990  80.0346950  45.0745080
  62.0431270  78.8386630  46.0020910  53.4161540  78.3847090  54.0776510
  53.0224930  79.2322300  54.2849290  52.7279940  77.7473460  54.2685150
  59.9906590  78.4682060  57.1473250  59.3004910  78.2754260  57.7819340
  60.7338890  78.7516700  57.6797550  50.7178590  76.3075550  48.1106590
  50.4291640  76.8778410  48.8231570  51.4624350  75.8280000  48.4737820
  50.9048820  80.2495670  39.3209310  50.8223490  81.1926430  39.4624300
  50.5531880  80.1070580  38.4421660  62.2669560  82.3080500  49.9827170
  61.5350680  82.8167310  50.3317270  61.8693900  81.4910480  49.6815950
  58.7046950  78.9834700  48.3879660  58.7083010  78.5424650  47.5384200
  59.5998070  79.3052030  48.4951480  54.5549330  78.8661190  47.3473870
  54.2149380  79.3436420  48.1040920  53.7926650  78.4126310  46.9874970
  58.7667100  79.9846780  41.3786420  58.8879920  79.9433260  42.3272240
  58.3815610  80.8470930  41.2233150  62.7295470  77.7614180  49.3950110
  62.7468210  78.2122830  50.2391960  62.4811050  76.8619820  49.6083550
  57.7788600  82.2947920  40.7769720  57.2105500  81.8466170  40.1505630
  58.4877600  82.6540700  40.2434870  66.1566220  75.1746360  55.2336490
  66.4811990  74.4436020  55.7594470  66.1922730  74.8560000  54.3317480
  52.8557780  86.1959940  54.6536450  52.4712570  85.5553610  55.2519410
  53.1669970  86.8996060  55.2231180  59.0054920  83.0436480  50.1345070
  59.3725050  82.5695050  50.8806410  58.8159980  83.9178050  50.4753410
  51.8695410  77.7880170  46.2638540  51.5842330  77.4235840  47.1017160
  51.8074270  77.0560630  45.6501680  56.7954290  82.0845120  52.4529280
  56.4911360  82.9637100  52.6779640  57.7500750  82.1444910  52.4886720
  55.3236080  86.2906110  43.0496130  54.5498340  85.7503730  42.8894850
  56.0530710  85.7712720  42.7113890  66.0824060  85.2871470  48.8422520
  66.8023180  85.7826760  48.4518630  65.8805880  84.6089360  48.1976390
  61.5434000  76.6809430  42.9851910  60.7298610  76.1822600  42.9097220
  61.3495950  77.5207680  42.5688260  61.4642860  85.3580530  54.7291520
  61.3980170  84.4376200  54.4749110  60.8348000  85.4555970  55.4436160
  64.2582390  81.0529080  41.2814070  65.1462010  81.3646310  41.1065410
  64.2287480  80.1801330  40.8894650  55.3673480  85.9586490  46.6874940
  55.8852150  85.1554750  46.6331830  54.9157500  85.8965630  47.5291770
  60.2542980  87.2252770  41.9602240  60.5958680  87.9695000  41.4645560
  59.4255690  87.5383890  42.3227070  52.8518020  82.9247860  53.6000640
  52.4932960  83.5901710  54.1873980  52.5572580  82.0931410  53.9713260
  56.0531140  83.3832100  56.4840190  55.7531280  83.5289280  55.5868010
  56.8242380  82.8237390  56.3913580  61.3959590  88.1801100  54.4795320
  61.4104130  87.2482060  54.2614230  60.6884690  88.2660860  55.1185090
  66.5296660  82.3640920  40.7493930  66.4460380  82.7955140  39.8990370
  67.2490850  82.8239270  41.1820750  67.6070800  84.8208440  53.8263900
  66.8818990  85.4137220  53.6293290  68.1346260  84.8131980  53.0277270
  67.5583910  89.2183180  43.4776060  66.9160070  88.5638800  43.7519780
  67.1714570  89.6238270  42.7016730  63.1370390  86.5468610  47.3247750
  63.4894210  85.9496740  46.6649120  62.2532720  86.2212840  47.4956000
  59.2233670  87.3066300  44.7318160  59.9104800  87.8535510  45.1125750
  58.4366090  87.8507030  44.7667770  51.3626070  82.9239120  40.2235240
  52.2320920  83.2063920  40.5071160  50.8716390  83.7374990  40.1084050
  58.5260880  84.3112330  44.3443520  58.9823660  85.1217580  44.5703710
  58.1749090  83.9935470  45.1762010  60.8293490  89.8218670  51.5735820
  61.4735710  90.0278050  52.2509240  61.1922930  89.0607070  51.1206670
  54.4272660  74.6549980  44.8166040  54.2987290  74.6467880  45.7650960
  53.6034680  74.9933070  44.4657050  62.1025570  87.8251020  50.2913270
  62.7447800  87.1244180  50.4045440  62.6274920  88.6049460  50.1110160
  65.9481290  88.1099640  40.0152410  65.7218870  87.3930080  40.6077050
  65.5577490  87.8612080  39.1774160  63.8763190  88.6245920  53.4949330
  64.2119430  89.2112610  54.1727250  62.9563530  88.4938630  53.7247120
  51.4266590  76.4141100  54.2772740  50.7125110  76.6138020  54.8825350
  51.8461630  75.6380670  54.6487540  65.5297540  86.0271580  41.6766570
  65.2419240  86.4884270  42.4644450  66.3249710  85.5669350  41.9450790
  59.7051770  88.6737250  56.6637390  59.3848640  87.9546490  57.2083080
  59.0310130  89.3492320  56.7373450  57.7465940  89.5197700  41.6070540
  57.7376040  90.2527390  40.9915050  56.8264300  89.2729280  41.6997500
  53.3472580  84.7412590  42.3517300  52.7400530  85.4811490  42.3612600
  53.8221930  84.8311950  41.5255500  62.9205370  78.9063410  52.0274190
  63.2886190  78.0858620  52.3553760  62.0603570  78.9665300  52.4429840
  66.2867400  77.8620350  42.8361750  65.6580560  77.9666020  42.1219980
  65.7919320  78.0817130  43.6255630  60.7325540  89.5825940  40.2695730
  60.8337520  89.3789930  39.3397710  59.8327280  89.3284220  40.4743510
  58.2551430  80.1406300  44.2519630  57.5467580  80.6092640  44.6933240
  58.5395910  79.4828310  44.8864820  59.8807360  81.5603000  52.2512160
  60.3792610  82.0348820  52.9164010  60.0230310  80.6366520  52.4582190
  62.2866860  76.8656960  45.6915420  62.1634640  76.8843090  44.7424930
  63.2351420  76.9135900  45.8113820  56.4586450  78.4491380  41.6270340
  57.3076980  78.8861530  41.5610530  56.0917720  78.7611640  42.4542400
  67.0874220  77.7770960  53.0940550  66.5847820  78.5176360  53.4334360
  67.9030880  78.1654960  52.7777340  65.3796230  83.0204140  46.5401910
  64.4386370  83.0354370  46.7149600  65.6940300  82.2340100  46.9862210
  55.3577870  84.7023740  40.1005870  56.1241140  84.5905100  40.6631300
  55.4352560  84.0061710  39.4482640  54.0524630  82.1348810  40.7838760
  54.1328220  81.1876320  40.8956160  54.9444380  82.4655690  40.8899420
  51.7384820  88.3517770  43.7614810  50.8124600  88.5938910  43.7520220
  52.2041250  89.1792030  43.6399560  62.6962250  87.5770140  57.0234290
  62.0900410  87.6001740  56.2830040  62.3916360  86.8453180  57.5601540
  51.5795430  83.9563730  56.0194930  52.0834450  83.3771010  56.5911160
  50.8402850  84.2403960  56.5571300  58.4819050  86.6777920  39.5741220
  58.3769690  86.0630270  40.3002600  58.3143270  86.1543810  38.7904230
  58.6333370  85.3634720  55.5530450  57.8679040  85.9319720  55.4685120
  58.8149330  85.0710930  54.6598680  61.7221780  85.7397950  40.1783210
  61.1731880  86.1867250  40.8225950  62.3441040  85.2347200  40.7020880
  65.7756720  87.0940050  56.1105470  66.5166190  87.4315810  55.6072930
  65.0129400  87.2632110  55.5575240  53.6118510  82.0993320  56.9145000
  53.6523850  81.8007190  57.8230230  54.4664010  82.5000930  56.7552520
  57.3896900  84.6988870  42.0748510  57.8113320  84.5328740  42.9179900
  57.5147740  83.8889100  41.5803650  55.5524320  80.6785420  54.8819490
  55.0220780  80.1876370  54.2542830  56.2212390  81.1069620  54.3477420
  59.9024540  83.7226480  39.3225610  60.4230200  83.0075500  38.9566760
  60.5492940  84.3612350  39.6226120  64.4502380  85.1454880  54.6460680
  64.8643400  85.2999960  55.4951100  63.5153380  85.2710100  54.8086460
  64.9224550  82.4851040  56.6499830  65.5045320  81.7303360  56.5620310
  65.0986320  83.0158480  55.8731310  56.0396620  77.6447790  54.9616780
  55.9453490  77.0268540  54.2367650  55.4594010  78.3714080  54.7346690
  58.8058060  76.2021030  51.9944170  58.3575360  76.2245290  51.1489720
  58.1723260  75.8040050  52.5914470  59.2117610  85.0975360  52.6156610
  59.6305720  85.9408090  52.4432850  58.2926240  85.2347400  52.3863390
  61.5481510  82.8291540  53.9994450  61.6677720  82.2332680  54.7389290
  62.4075510  82.8661230  53.5795750  63.8869410  83.3828730  52.5756960
  63.3604630  83.9071350  51.9722100  64.2300750  84.0156120  53.2066690
  56.2855800  80.7722100  39.0206670  56.0844860  79.9089460  39.3820010
  56.1147850  80.6855460  38.0828270  58.3150280  79.3712890  55.2570270
  58.9049970  79.0628740  55.9448090  57.4970520  78.8992640  55.4130170
  63.1343710  78.9878700  55.4903290  62.4459230  78.3260240  55.4253280
  63.8549730  78.5416970  55.9351750  63.7644110  75.5830330  41.5493550
  64.0446400  74.7398230  41.9052970  62.9909840  75.8153440  42.0632300
  55.0838600  77.8722720  39.0084550  55.3864500  77.8790150  38.1003700
  55.8233190  77.5220580  39.5052210  58.3023530  76.8157340  39.9940750
  57.9545530  76.1381330  39.4143200  58.5036300  76.3546850  40.8084140
  54.1068730  87.1765140  39.8414350  54.5443600  87.7194810  40.4971930
  54.5916460  86.3512090  39.8510690  51.3214530  89.9654170  47.2934610
  51.6517540  89.0975230  47.0613250  51.7505530  90.1712690  48.1239570
  55.9176450  88.2963180  44.9536580  55.6171990  88.1728150  45.8540490
  55.8113940  87.4371770  44.5452310  67.4466920  90.3341760  54.3193550
  66.8468910  90.3934320  53.5757470  67.5760820  89.3946740  54.4490400
  68.6868370  88.0759580  39.6563260  67.8561330  88.1436230  40.1270490
  68.8640200  88.9663700  39.3530120  68.1424830  84.8207060  42.1597460
  68.9043740  85.3903710  42.2657150  68.1579200  84.2534260  42.9305770
  51.6429170  83.3444990  46.3905120  50.9878010  83.0756630  45.7464820
  52.4807120  83.2349470  45.9407100  69.1484800  85.6757160  47.0039390
  69.5193630  84.8924480  46.5975360  69.7886730  86.3646260  46.8256690
  66.1318560  87.0593740  52.4169710  65.3178400  87.4890900  52.6795500
  66.5392760  87.6712150  51.8038760  68.1944000  85.1141430  39.3169980
  68.4692840  86.0220310  39.1889200  68.0054740  85.0503960  40.2531970
  64.5919610  78.1386280  40.6123610  65.0104490  77.9517260  39.7720270
  64.2855670  77.2865330  40.9226540  68.0909340  83.0510420  44.3099410
  67.7152940  82.2838350  43.8780700  67.3612460  83.4333120  44.7974340
  52.6805100  83.7297560  50.9308460  53.0478140  83.6424960  51.8104480
  52.1115920  82.9664110  50.8315320  67.4808960  82.1981940  53.9438930
  67.2495050  81.9694690  53.0436880  67.7413510  83.1181490  53.8983820
  52.2321100  80.6406650  54.8366880  51.3377150  80.6073410  55.1760590
  52.7718650  80.8393440  55.6018130  65.9197030  77.4238370  56.7218630
  66.7967210  77.4321770  57.1052630  65.9317870  76.6869210  56.1110980
  50.8567250  80.5543920  42.3330450  49.9531330  80.8174120  42.1582110
  51.3407870  80.8255090  41.5530410  67.3660300  81.2767910  47.6106650
  67.8897780  80.7830560  46.9796820  67.9519720  81.4118270  48.3554220
  67.5450020  81.3607780  51.1326200  66.5952730  81.3271320  51.2471190
  67.7263030  82.2707890  50.8975970  53.3994460  79.6109460  40.2424830
  54.1086160  79.1892680  39.7572110  52.6834400  79.6784690  39.6108180
  53.0468620  75.6648790  39.2827480  53.7696750  76.2057730  39.6008700
  53.3193140  75.3912210  38.4069020  66.8560270  80.5341260  43.5499060
  67.3519390  80.3012130  44.3347940  66.6576340  79.6953100  43.1336700
  52.7360810  74.9154980  49.1850100  53.3837000  74.3652360  48.7445260
  53.1562650  75.1698130  50.0065910  68.2847430  79.1702210  46.0836740
  68.1746710  79.0158250  47.0219010  69.0455020  78.6423150  45.8412150
  66.6313150  75.1096340  52.5419740  67.2685370  75.7230480  52.9078930
  66.7788040  75.1457000  51.5968970  69.1737700  77.0010130  39.3242880
  70.0987010  76.8691310  39.1161170  69.1513490  77.0802950  40.2779330
  69.2476190  77.7720790  41.9499590  68.4527690  77.7065910  42.4792500
  69.4519470  78.7071430  41.9384940  52.4892810  75.0710650  51.9275420
  52.1407630  75.5274470  52.6933600  52.1580510  74.1767780  52.0097850
  54.0957180  88.2430250  56.0928610  54.0526810  87.8723160  56.9743070
  54.2268190  89.1807820  56.2330430  57.7963210  89.7989840  51.6938330
  57.5554570  90.0664400  50.8068850  58.7365850  89.9695570  51.7489190
  60.0017630  76.2622530  55.4494840  59.9406520  76.8544360  56.1990250
  60.9418010  76.1548490  55.3045100  62.6392190  75.9192590  55.0887130
  63.2532600  76.2371880  54.4268210  63.1841750  75.4341180  55.7082990
  53.1613450  74.5986850  55.2026190  53.7096440  74.4174900  54.4392300
  53.2268760  73.8080960  55.7382500  63.3800230  74.4824730  51.4156420
  62.5060070  74.8159840  51.2129350  63.2710980  74.0097910  52.2408290
  64.2872210  76.6895600  52.7998140  63.9585570  75.8747360  52.4199870
  65.2354510  76.6465410  52.6763830  53.5657440  88.5550880  52.1634430
  52.8391500  87.9356170  52.0960380  53.6266590  88.9491490  51.2932510
  61.1275050  75.3994570  50.3549330  60.3446840  75.8740070  50.6346090
  60.8337980  74.4949400  50.2462510  65.6796120  76.1017670  48.3998420
  66.1204210  76.0462770  47.5520020  65.4103710  77.0175680  48.4708600
  67.5434690  75.7332910  46.4107240  67.4823090  74.7894130  46.2638260
  68.3226720  75.8413000  46.9560700  52.4715460  75.7042050  42.8763050
  53.2294820  75.8170930  42.3027080  52.0092630  76.5411250  42.8306480
  59.0129270  77.8181320  45.8665360  58.2003780  77.4438210  45.5261240
  59.5170910  77.0626400  46.1686550  63.5154250  74.4823770  47.1048430
  64.1183620  75.0543980  47.5796950  62.7747240  75.0463210  46.8822330
  66.6588850  74.8845330  42.3788710  66.8539480  75.7828780  42.6456140
  65.8718720  74.6532410  42.8721660  54.8440610  76.2306100  41.4165020
  55.3733370  75.4435900  41.2872970  55.4768930  76.9097290  41.6500550
  57.0378450  75.9681240  44.4710410  56.4081190  75.2668550  44.6380540
  56.4983590  76.7285370  44.2543570  57.1634010  75.2465220  56.9062900
  56.8818280  75.7498820  56.1423720  57.5453710  74.4486970  56.5405030
  55.2157900  88.6305610  41.6976910  54.5866780  89.0990710  42.2462740
  55.3305730  87.7854830  42.1323100  63.7649470  74.6618800  57.4843370
  63.6514920  74.9813410  58.3794890  64.5819210  75.0631310  57.1880650
  62.6707620  82.6811270  27.8478110  62.5901670  81.7665880  27.5769820
  62.2572040  83.1778340  27.1417820  60.8025660  84.4590290  29.7287380
  60.0267760  83.9790730  30.0185950  61.4538590  83.7795940  29.5543540
  54.8191490  84.7710100  30.6063140  53.9876370  84.5158810  31.0059650
  55.4272470  84.8420870  31.3421060  64.8233090  88.8650480  28.5086510
  64.3614620  88.0937720  28.8373680  65.6358640  88.8916550  29.0138960
  54.7992750  88.8050190  30.8021160  55.1020790  87.9147930  30.6231380
  55.5436340  89.3620410  30.5743410  53.2283440  79.7311990  24.3905530
  52.3400140  80.0727960  24.2885410  53.5124630  79.5312310  23.4986360
  51.1916450  82.3317640  30.2745230  51.7632560  81.5639840  30.2748870
  51.1917990  82.6306400  29.3651840  60.2434650  87.1347480  29.7357540
  60.1742930  86.1937420  29.5746670  61.0054510  87.2248890  30.3080110
  52.4341320  77.7402000  32.0614160  52.2544160  76.8427750  32.3416920
  52.0321400  78.2873870  32.7361110  61.2739820  79.9417860  29.9626470
  61.6504640  79.0689740  29.8500140  61.1759330  80.2776560  29.0716910
  55.4044830  78.3143490  25.4243910  55.5111580  79.2147220  25.7312670
  54.4937190  78.2661460  25.1338560  65.0563940  77.4368300  26.8954810
  65.8773560  76.9464870  26.9380290  65.0898020  78.0265960  27.6486650
  53.0527990  80.2362500  30.6696500  53.7338100  80.5000870  31.2883900
  52.7376040  79.3963370  31.0034510  57.2452560  81.2829860  29.7569090
  57.7530780  81.7810830  30.3974110  57.7765800  80.5065060  29.5808450
  69.3463490  79.4535050  33.4598440  68.6415660  79.8416760  32.9413550
  69.6121410  80.1485340  34.0619370  55.5288660  75.9228420  34.0232510
  55.5307100  76.4400810  33.2178410  54.6992970  75.4458600  34.0002440
  61.9159750  86.0347730  25.5222410  61.2977020  86.4997180  24.9585130
  62.4283000  86.7275210  25.9391920  56.7791510  85.5623600  32.2006010
  56.4460890  86.1892520  32.8427080  56.9558190  86.0885480  31.4207680
  65.2925420  79.3768680  29.6682350  64.5880990  79.6653570  30.2485460
  65.6537580  80.1868790  29.3081910  55.2103990  77.6338380  32.0302960
  55.5520800  78.4780430  31.7356830  54.2719800  77.7822120  32.1468300
  55.9910610  87.5304400  34.0155190  56.6084610  88.2055480  33.7339640
  55.1303730  87.9392380  33.9242690  51.2842950  86.7204260  22.8962040
  50.9070930  87.2091360  22.1646940  51.5416020  87.3929540  23.5268570
  66.9088200  88.9943810  31.9309830  66.2251720  89.6642920  31.9226500
  67.4482490  89.1924460  31.1654690  68.3612340  78.8223470  30.0591560
  67.4137250  78.8562450  30.1906990  68.6862330  79.6362420  30.4440920
  58.8931880  75.1220650  28.3547550  59.2006860  74.5667540  27.6383050
  57.9632580  75.2565110  28.1720540  65.7392360  87.5604160  25.7345180
  65.6288690  86.6178490  25.8594600  65.7360610  87.9219800  26.6207940
  63.8432380  85.7417780  31.9737620  64.2601170  85.5277890  31.1391080
  64.5672200  85.9990570  32.5446240  61.2812640  83.1869480  25.0907670
  60.3541920  83.1206860  25.3196140  61.4337460  84.1249610  24.9762910
  61.2681720  79.4586480  22.0874830  60.3285390  79.6200440  22.1727290
  61.5864980  80.1772160  21.5410820  67.7894480  84.1405000  32.0653860
  66.9613110  84.2098090  31.5903990  68.3844960  84.7259310  31.5969690
  65.3109930  84.7489780  25.5942920  64.6922350  84.4109330  24.9469220
  65.2934380  84.1049540  26.3022110  64.7536490  80.9274320  33.0108730
  64.3407670  81.7528030  33.2648720  64.0212440  80.3419360  32.8185090
  56.8869280  83.7134220  27.8727400  56.4826280  83.0011470  27.3773300
  56.9732400  83.3687460  28.7615440  57.3550980  87.4001780  30.0366610
  57.0579270  86.7947250  29.3574390  58.3050800  87.4379090  29.9255970
  55.5997900  80.4877430  31.6526440  56.1512490  80.5972770  30.8779690
  56.1141410  80.8615030  32.3681670  56.4469410  87.1383470  36.6874410
  55.5497940  87.3623440  36.9347810  56.4722280  87.2618410  35.7385810
  63.4874630  83.9876590  22.6015670  63.9267910  83.1499020  22.4553490
  64.2003050  84.6205990  22.6879810  55.2740630  84.0096790  35.2631780
  55.1348400  84.8819590  35.6319180  54.3921990  83.6669600  35.1179720
  61.5970010  88.9272660  26.5696910  62.0365920  89.6696990  26.1552300
  61.5356900  89.1699230  27.4935870  57.0720980  89.9518490  37.4716930
  57.0436410  90.3561440  36.6045360  56.9085950  89.0228850  37.3088530
  67.0691770  75.2419400  20.9156710  66.7564430  75.3346230  21.8155780
  67.8304240  75.8200430  20.8654140  53.5873910  82.6079200  25.3734050
  53.4671510  83.3341290  24.7615320  53.2774800  81.8382110  24.8961960
  51.2259280  85.7794340  31.1802690  51.3039700  85.9143110  30.2358410
  51.8400960  85.0710230  31.3730810  52.4706910  87.4794530  27.5908870
  52.0634990  87.6209120  26.7362470  53.3619920  87.1954690  27.3880080
  68.4269050  87.9258440  35.9281110  68.5532110  87.6870320  35.0098290
  68.4690430  87.0942980  36.4003190  63.9666320  89.4229340  22.4857920
  63.2731480  89.4206630  21.8260200  64.7089180  88.9988660  22.0552090
  68.2793060  79.9790900  36.8930850  67.6637330  80.4870570  36.3646310
  67.9589480  79.0789230  36.8356790  51.2818800  86.8208510  33.7197150
  51.4449840  86.3513870  32.9016520  51.7471250  86.3132070  34.3845990
  56.0537570  75.9514270  28.7557720  55.6105720  76.7323810  28.4242240
  56.6122560  76.2744160  29.4628660  60.3407380  78.8182790  34.3593040
  59.8786750  79.0265810  35.1712980  59.9385490  78.0042140  34.0563710
  65.3411890  80.0391740  35.4889700  64.4905480  79.7397490  35.8098770
  65.1813680  80.2833750  34.5773520  62.4361600  81.5393490  37.5888490
  62.7615010  80.7057240  37.2490720  63.2241930  82.0622010  37.7366820
  59.1696390  75.5724970  23.6363550  58.5450570  75.5684840  24.3616860
  59.0826510  74.7055930  23.2399520  58.0913470  76.4961600  30.6147320
  58.3885800  77.4024430  30.5339340  58.6399030  76.0080380  30.0006890
  55.8451790  81.0747840  26.4838970  55.6192710  80.8585010  27.3885590
  55.0644320  81.5076300  26.1384940  63.0749550  81.0811210  25.0829620
  62.4758440  81.8047010  24.8993240  63.6229160  81.0187990  24.3006070
  58.2851000  81.9733420  37.1499240  58.1894600  81.0328150  36.9999640
  59.1282980  82.1948490  36.7547310  61.6814420  79.7174750  27.1132900
  62.0743990  80.0346950  26.3001590  62.0431270  78.8386630  27.2277420
  53.4161540  78.3847090  35.3033020  53.0224930  79.2322300  35.5105800
  52.7279940  77.7473460  35.4941660  59.9906590  78.4682060  38.3729760
  59.3004910  78.2754260  39.0075850  60.7338890  78.7516700  38.9054060
  50.7178590  76.3075550  29.3363100  50.4291640  76.8778410  30.0488080
  51.4624350  75.8280000  29.6994330  50.9048820  80.2495670  20.5465820
  50.8223490  81.1926430  20.6880810  50.5531880  80.1070580  19.6678170
  62.2669560  82.3080500  31.2083680  61.5350680  82.8167310  31.5573780
  61.8693900  81.4910480  30.9072460  58.7046950  78.9834700  29.6136170
  58.7083010  78.5424650  28.7640710  59.5998070  79.3052030  29.7207990
  54.5549330  78.8661190  28.5730380  54.2149380  79.3436420  29.3297430
  53.7926650  78.4126310  28.2131480  58.7667100  79.9846780  22.6042930
  58.8879920  79.9433260  23.5528750  58.3815610  80.8470930  22.4489660
  62.7295470  77.7614180  30.6206620  62.7468210  78.2122830  31.4648470
  62.4811050  76.8619820  30.8340060  57.7788600  82.2947920  22.0026230
  57.2105500  81.8466170  21.3762140  58.4877600  82.6540700  21.4691380
  66.1566220  75.1746360  36.4593000  66.4811990  74.4436020  36.9850980
  66.1922730  74.8560000  35.5573990  52.8557780  86.1959940  35.8792960
  52.4712570  85.5553610  36.4775920  53.1669970  86.8996060  36.4487690
  59.0054920  83.0436480  31.3601580  59.3725050  82.5695050  32.1062920
  58.8159980  83.9178050  31.7009920  51.8695410  77.7880170  27.4895050
  51.5842330  77.4235840  28.3273670  51.8074270  77.0560630  26.8758190
  56.7954290  82.0845120  33.6785790  56.4911360  82.9637100  33.9036150
  57.7500750  82.1444910  33.7143230  55.3236080  86.2906110  24.2752640
  54.5498340  85.7503730  24.1151360  56.0530710  85.7712720  23.9370400
  66.0824060  85.2871470  30.0679030  66.8023180  85.7826760  29.6775140
  65.8805880  84.6089360  29.4232900  61.5434000  76.6809430  24.2108420
  60.7298610  76.1822600  24.1353730  61.3495950  77.5207680  23.7944770
  61.4642860  85.3580530  35.9548030  61.3980170  84.4376200  35.7005620
  60.8348000  85.4555970  36.6692670  64.2582390  81.0529080  22.5070580
  65.1462010  81.3646310  22.3321920  64.2287480  80.1801330  22.1151160
  55.3673480  85.9586490  27.9131450  55.8852150  85.1554750  27.8588340
  54.9157500  85.8965630  28.7548280  60.2542980  87.2252770  23.1858750
  60.5958680  87.9695000  22.6902070  59.4255690  87.5383890  23.5483580
  52.8518020  82.9247860  34.8257150  52.4932960  83.5901710  35.4130490
  52.5572580  82.0931410  35.1969770  56.0531140  83.3832100  37.7096700
  55.7531280  83.5289280  36.8124520  56.8242380  82.8237390  37.6170090
  61.3959590  88.1801100  35.7051830  61.4104130  87.2482060  35.4870740
  60.6884690  88.2660860  36.3441600  66.5296660  82.3640920  21.9750440
  66.4460380  82.7955140  21.1246880  67.2490850  82.8239270  22.4077260
  67.6070800  84.8208440  35.0520410  66.8818990  85.4137220  34.8549800
  68.1346260  84.8131980  34.2533780  67.5583910  89.2183180  24.7032570
  66.9160070  88.5638800  24.9776290  67.1714570  89.6238270  23.9273240
  63.1370390  86.5468610  28.5504260  63.4894210  85.9496740  27.8905630
  62.2532720  86.2212840  28.7212510  59.2233670  87.3066300  25.9574670
  59.9104800  87.8535510  26.3382260  58.4366090  87.8507030  25.9924280
  51.3626070  82.9239120  21.4491750  52.2320920  83.2063920  21.7327670
  50.8716390  83.7374990  21.3340560  58.5260880  84.3112330  25.5700030
  58.9823660  85.1217580  25.7960220  58.1749090  83.9935470  26.4018520
  60.8293490  89.8218670  32.7992330  61.4735710  90.0278050  33.4765750
  61.1922930  89.0607070  32.3463180  54.4272660  74.6549980  26.0422550
  54.2987290  74.6467880  26.9907470  53.6034680  74.9933070  25.6913560
  62.1025570  87.8251020  31.5169780  62.7447800  87.1244180  31.6301950
  62.6274920  88.6049460  31.3366670  65.9481290  88.1099640  21.2408920
  65.7218870  87.3930080  21.8333560  65.5577490  87.8612080  20.4030670
  63.8763190  88.6245920  34.7205840  64.2119430  89.2112610  35.3983760
  62.9563530  88.4938630  34.9503630  51.4266590  76.4141100  35.5029250
  50.7125110  76.6138020  36.1081860  51.8461630  75.6380670  35.8744050
  65.5297540  86.0271580  22.9023080  65.2419240  86.4884270  23.6900960
  66.3249710  85.5669350  23.1707300  59.7051770  88.6737250  37.8893900
  59.3848640  87.9546490  38.4339590  59.0310130  89.3492320  37.9629960
  57.7465940  89.5197700  22.8327050  57.7376040  90.2527390  22.2171560
  56.8264300  89.2729280  22.9254010  53.3472580  84.7412590  23.5773810
  52.7400530  85.4811490  23.5869110  53.8221930  84.8311950  22.7512010
  62.9205370  78.9063410  33.2530700  63.2886190  78.0858620  33.5810270
  62.0603570  78.9665300  33.6686350  66.2867400  77.8620350  24.0618260
  65.6580560  77.9666020  23.3476490  65.7919320  78.0817130  24.8512140
  60.7325540  89.5825940  21.4952240  60.8337520  89.3789930  20.5654220
  59.8327280  89.3284220  21.7000020  58.2551430  80.1406300  25.4776140
  57.5467580  80.6092640  25.9189750  58.5395910  79.4828310  26.1121330
  59.8807360  81.5603000  33.4768670  60.3792610  82.0348820  34.1420520
  60.0230310  80.6366520  33.6838700  62.2866860  76.8656960  26.9171930
  62.1634640  76.8843090  25.9681440  63.2351420  76.9135900  27.0370330
  56.4586450  78.4491380  22.8526850  57.3076980  78.8861530  22.7867040
  56.0917720  78.7611640  23.6798910  67.0874220  77.7770960  34.3197060
  66.5847820  78.5176360  34.6590870  67.9030880  78.1654960  34.0033850
  65.3796230  83.0204140  27.7658420  64.4386370  83.0354370  27.9406110
  65.6940300  82.2340100  28.2118720  55.3577870  84.7023740  21.3262380
  56.1241140  84.5905100  21.8887810  55.4352560  84.0061710  20.6739150
  54.0524630  82.1348810  22.0095270  54.1328220  81.1876320  22.1212670
  54.9444380  82.4655690  22.1155930  51.7384820  88.3517770  24.9871320
  50.8124600  88.5938910  24.9776730  52.2041250  89.1792030  24.8656070
  62.6962250  87.5770140  38.2490800  62.0900410  87.6001740  37.5086550
  62.3916360  86.8453180  38.7858050  51.5795430  83.9563730  37.2451440
  52.0834450  83.3771010  37.8167670  50.8402850  84.2403960  37.7827810
  58.4819050  86.6777920  20.7997730  58.3769690  86.0630270  21.5259110
  58.3143270  86.1543810  20.0160740  58.6333370  85.3634720  36.7786960
  57.8679040  85.9319720  36.6941630  58.8149330  85.0710930  35.8855190
  61.7221780  85.7397950  21.4039720  61.1731880  86.1867250  22.0482460
  62.3441040  85.2347200  21.9277390  65.7756720  87.0940050  37.3361980
  66.5166190  87.4315810  36.8329440  65.0129400  87.2632110  36.7831750
  53.6118510  82.0993320  38.1401510  53.6523850  81.8007190  39.0486740
  54.4664010  82.5000930  37.9809030  57.3896900  84.6988870  23.3005020
  57.8113320  84.5328740  24.1436410  57.5147740  83.8889100  22.8060160
  55.5524320  80.6785420  36.1076000  55.0220780  80.1876370  35.4799340
  56.2212390  81.1069620  35.5733930  59.9024540  83.7226480  20.5482120
  60.4230200  83.0075500  20.1823270  60.5492940  84.3612350  20.8482630
  64.4502380  85.1454880  35.8717190  64.8643400  85.2999960  36.7207610
  63.5153380  85.2710100  36.0342970  64.9224550  82.4851040  37.8756340
  65.5045320  81.7303360  37.7876820  65.0986320  83.0158480  37.0987820
  56.0396620  77.6447790  36.1873290  55.9453490  77.0268540  35.4624160
  55.4594010  78.3714080  35.9603200  58.8058060  76.2021030  33.2200680
  58.3575360  76.2245290  32.3746230  58.1723260  75.8040050  33.8170980
  59.2117610  85.0975360  33.8413120  59.6305720  85.9408090  33.6689360
  58.2926240  85.2347400  33.6119900  61.5481510  82.8291540  35.2250960
  61.6677720  82.2332680  35.9645800  62.4075510  82.8661230  34.8052260
  63.8869410  83.3828730  33.8013470  63.3604630  83.9071350  33.1978610
  64.2300750  84.0156120  34.4323200  56.2855800  80.7722100  20.2463180
  56.0844860  79.9089460  20.6076520  56.1147850  80.6855460  19.3084780
  58.3150280  79.3712890  36.4826780  58.9049970  79.0628740  37.1704600
  57.4970520  78.8992640  36.6386680  63.1343710  78.9878700  36.7159800
  62.4459230  78.3260240  36.6509790  63.8549730  78.5416970  37.1608260
  63.7644110  75.5830330  22.7750060  64.0446400  74.7398230  23.1309480
  62.9909840  75.8153440  23.2888810  55.0838600  77.8722720  20.2341060
  55.3864500  77.8790150  19.3260210  55.8233190  77.5220580  20.7308720
  58.3023530  76.8157340  21.2197260  57.9545530  76.1381330  20.6399710
  58.5036300  76.3546850  22.0340650  54.1068730  87.1765140  21.0670860
  54.5443600  87.7194810  21.7228440  54.5916460  86.3512090  21.0767200
  51.3214530  89.9654170  28.5191120  51.6517540  89.0975230  28.2869760
  51.7505530  90.1712690  29.3496080  55.9176450  88.2963180  26.1793090
  55.6171990  88.1728150  27.0797000  55.8113940  87.4371770  25.7708820
  67.4466920  90.3341760  35.5450060  66.8468910  90.3934320  34.8013980
  67.5760820  89.3946740  35.6746910  68.6868370  88.0759580  20.8819770
  67.8561330  88.1436230  21.3527000  68.8640200  88.9663700  20.5786630
  68.1424830  84.8207060  23.3853970  68.9043740  85.3903710  23.4913660
  68.1579200  84.2534260  24.1562280  51.6429170  83.3444990  27.6161630
  50.9878010  83.0756630  26.9721330  52.4807120  83.2349470  27.1663610
  69.1484800  85.6757160  28.2295900  69.5193630  84.8924480  27.8231870
  69.7886730  86.3646260  28.0513200  66.1318560  87.0593740  33.6426220
  65.3178400  87.4890900  33.9052010  66.5392760  87.6712150  33.0295270
  68.1944000  85.1141430  20.5426490  68.4692840  86.0220310  20.4145710
  68.0054740  85.0503960  21.4788480  64.5919610  78.1386280  21.8380120
  65.0104490  77.9517260  20.9976780  64.2855670  77.2865330  22.1483050
  68.0909340  83.0510420  25.5355920  67.7152940  82.2838350  25.1037210
  67.3612460  83.4333120  26.0230850  52.6805100  83.7297560  32.1564970
  53.0478140  83.6424960  33.0360990  52.1115920  82.9664110  32.0571830
  67.4808960  82.1981940  35.1695440  67.2495050  81.9694690  34.2693390
  67.7413510  83.1181490  35.1240330  52.2321100  80.6406650  36.0623390
  51.3377150  80.6073410  36.4017100  52.7718650  80.8393440  36.8274640
  65.9197030  77.4238370  37.9475140  66.7967210  77.4321770  38.3309140
  65.9317870  76.6869210  37.3367490  50.8567250  80.5543920  23.5586960
  49.9531330  80.8174120  23.3838620  51.3407870  80.8255090  22.7786920
  67.3660300  81.2767910  28.8363160  67.8897780  80.7830560  28.2053330
  67.9519720  81.4118270  29.5810730  67.5450020  81.3607780  32.3582710
  66.5952730  81.3271320  32.4727700  67.7263030  82.2707890  32.1232480
  53.3994460  79.6109460  21.4681340  54.1086160  79.1892680  20.9828620
  52.6834400  79.6784690  20.8364690  53.0468620  75.6648790  20.5083990
  53.7696750  76.2057730  20.8265210  53.3193140  75.3912210  19.6325530
  66.8560270  80.5341260  24.7755570  67.3519390  80.3012130  25.5604450
  66.6576340  79.6953100  24.3593210  52.7360810  74.9154980  30.4106610
  53.3837000  74.3652360  29.9701770  53.1562650  75.1698130  31.2322420
  68.2847430  79.1702210  27.3093250  68.1746710  79.0158250  28.2475520
  69.0455020  78.6423150  27.0668660  66.6313150  75.1096340  33.7676250
  67.2685370  75.7230480  34.1335440  66.7788040  75.1457000  32.8225480
  69.1737700  77.0010130  20.5499390  70.0987010  76.8691310  20.3417680
  69.1513490  77.0802950  21.5035840  69.2476190  77.7720790  23.1756100
  68.4527690  77.7065910  23.7049010  69.4519470  78.7071430  23.1641450
  52.4892810  75.0710650  33.1531930  52.1407630  75.5274470  33.9190110
  52.1580510  74.1767780  33.2354360  54.0957180  88.2430250  37.3185120
  54.0526810  87.8723160  38.1999580  54.2268190  89.1807820  37.4586940
  57.7963210  89.7989840  32.9194840  57.5554570  90.0664400  32.0325360
  58.7365850  89.9695570  32.9745700  60.0017630  76.2622530  36.6751350
  59.9406520  76.8544360  37.4246760  60.9418010  76.1548490  36.5301610
  62.6392190  75.9192590  36.3143640  63.2532600  76.2371880  35.6524720
  63.1841750  75.4341180  36.9339500  53.1613450  74.5986850  36.4282700
  53.7096440  74.4174900  35.6648810  53.2268760  73.8080960  36.9639010
  63.3800230  74.4824730  32.6412930  62.5060070  74.8159840  32.4385860
  63.2710980  74.0097910  33.4664800  64.2872210  76.6895600  34.0254650
  63.9585570  75.8747360  33.6456380  65.2354510  76.6465410  33.9020340
  53.5657440  88.5550880  33.3890940  52.8391500  87.9356170  33.3216890
  53.6266590  88.9491490  32.5189020  61.1275050  75.3994570  31.5805840
  60.3446840  75.8740070  31.8602600  60.8337980  74.4949400  31.4719020
  65.6796120  76.1017670  29.6254930  66.1204210  76.0462770  28.7776530
  65.4103710  77.0175680  29.6965110  67.5434690  75.7332910  27.6363750
  67.4823090  74.7894130  27.4894770  68.3226720  75.8413000  28.1817210
  52.4715460  75.7042050  24.1019560  53.2294820  75.8170930  23.5283590
  52.0092630  76.5411250  24.0562990  59.0129270  77.8181320  27.0921870
  58.2003780  77.4438210  26.7517750  59.5170910  77.0626400  27.3943060
  63.5154250  74.4823770  28.3304940  64.1183620  75.0543980  28.8053460
  62.7747240  75.0463210  28.1078840  66.6588850  74.8845330  23.6045220
  66.8539480  75.7828780  23.8712650  65.8718720  74.6532410  24.0978170
  54.8440610  76.2306100  22.6421530  55.3733370  75.4435900  22.5129480
  55.4768930  76.9097290  22.8757060  57.0378450  75.9681240  25.6966920
  56.4081190  75.2668550  25.8637050  56.4983590  76.7285370  25.4800080
  57.1634010  75.2465220  38.1319410  56.8818280  75.7498820  37.3680230
  57.5453710  74.4486970  37.7661540  55.2157900  88.6305610  22.9233420
  54.5866780  89.0990710  23.4719250  55.3305730  87.7854830  23.3579610
  63.7649470  74.6618800  38.7099880  63.6514920  74.9813410  39.6051400
  64.5819210  75.0631310  38.4137160  62.6707620  82.6811270   9.0734620
  62.5901670  81.7665880   8.8026330  62.2572040  83.1778340   8.3674330
  60.8025660  84.4590290  10.9543890  60.0267760  83.9790730  11.2442460
  61.4538590  83.7795940  10.7800050  54.8191490  84.7710100  11.8319650
  53.9876370  84.5158810  12.2316160  55.4272470  84.8420870  12.5677570
  64.8233090  88.8650480   9.7343020  64.3614620  88.0937720  10.0630190
  65.6358640  88.8916550  10.2395470  54.7992750  88.8050190  12.0277670
  55.1020790  87.9147930  11.8487890  55.5436340  89.3620410  11.7999920
  53.2283440  79.7311990   5.6162040  52.3400140  80.0727960   5.5141920
  53.5124630  79.5312310   4.7242870  51.1916450  82.3317640  11.5001740
  51.7632560  81.5639840  11.5005380  51.1917990  82.6306400  10.5908350
  60.2434650  87.1347480  10.9614050  60.1742930  86.1937420  10.8003180
  61.0054510  87.2248890  11.5336620  52.4341320  77.7402000  13.2870670
  52.2544160  76.8427750  13.5673430  52.0321400  78.2873870  13.9617620
  61.2739820  79.9417860  11.1882980  61.6504640  79.0689740  11.0756650
  61.1759330  80.2776560  10.2973420  55.4044830  78.3143490   6.6500420
  55.5111580  79.2147220   6.9569180  54.4937190  78.2661460   6.3595070
  65.0563940  77.4368300   8.1211320  65.8773560  76.9464870   8.1636800
  65.0898020  78.0265960   8.8743160  53.0527990  80.2362500  11.8953010
  53.7338100  80.5000870  12.5140410  52.7376040  79.3963370  12.2291020
  57.2452560  81.2829860  10.9825600  57.7530780  81.7810830  11.6230620
  57.7765800  80.5065060  10.8064960  69.3463490  79.4535050  14.6854950
  68.6415660  79.8416760  14.1670060  69.6121410  80.1485340  15.2875880
  55.5288660  75.9228420  15.2489020  55.5307100  76.4400810  14.4434920
  54.6992970  75.4458600  15.2258950  61.9159750  86.0347730   6.7478920
  61.2977020  86.4997180   6.1841640  62.4283000  86.7275210   7.1648430
  56.7791510  85.5623600  13.4262520  56.4460890  86.1892520  14.0683590
  56.9558190  86.0885480  12.6464190  65.2925420  79.3768680  10.8938860
  64.5880990  79.6653570  11.4741970  65.6537580  80.1868790  10.5338420
  55.2103990  77.6338380  13.2559470  55.5520800  78.4780430  12.9613340
  54.2719800  77.7822120  13.3724810  55.9910610  87.5304400  15.2411700
  56.6084610  88.2055480  14.9596150  55.1303730  87.9392380  15.1499200
  51.2842950  86.7204260   4.1218550  50.9070930  87.2091360   3.3903450
  51.5416020  87.3929540   4.7525080  66.9088200  88.9943810  13.1566340
  66.2251720  89.6642920  13.1483010  67.4482490  89.1924460  12.3911200
  68.3612340  78.8223470  11.2848070  67.4137250  78.8562450  11.4163500
  68.6862330  79.6362420  11.6697430  58.8931880  75.1220650   9.5804060
  59.2006860  74.5667540   8.8639560  57.9632580  75.2565110   9.3977050
  65.7392360  87.5604160   6.9601690  65.6288690  86.6178490   7.0851110
  65.7360610  87.9219800   7.8464450  63.8432380  85.7417780  13.1994130
  64.2601170  85.5277890  12.3647590  64.5672200  85.9990570  13.7702750
  61.2812640  83.1869480   6.3164180  60.3541920  83.1206860   6.5452650
  61.4337460  84.1249610   6.2019420  61.2681720  79.4586480   3.3131340
  60.3285390  79.6200440   3.3983800  61.5864980  80.1772160   2.7667330
  67.7894480  84.1405000  13.2910370  66.9613110  84.2098090  12.8160500
  68.3844960  84.7259310  12.8226200  65.3109930  84.7489780   6.8199430
  64.6922350  84.4109330   6.1725730  65.2934380  84.1049540   7.5278620
  64.7536490  80.9274320  14.2365240  64.3407670  81.7528030  14.4905230
  64.0212440  80.3419360  14.0441600  56.8869280  83.7134220   9.0983910
  56.4826280  83.0011470   8.6029810  56.9732400  83.3687460   9.9871950
  57.3550980  87.4001780  11.2623120  57.0579270  86.7947250  10.5830900
  58.3050800  87.4379090  11.1512480  55.5997900  80.4877430  12.8782950
  56.1512490  80.5972770  12.1036200  56.1141410  80.8615030  13.5938180
  56.4469410  87.1383470  17.9130920  55.5497940  87.3623440  18.1604320
  56.4722280  87.2618410  16.9642320  63.4874630  83.9876590   3.8272180
  63.9267910  83.1499020   3.6810000  64.2003050  84.6205990   3.9136320
  55.2740630  84.0096790  16.4888290  55.1348400  84.8819590  16.8575690
  54.3921990  83.6669600  16.3436230  61.5970010  88.9272660   7.7953420
  62.0365920  89.6696990   7.3808810  61.5356900  89.1699230   8.7192380
  57.0720980  89.9518490  18.6973440  57.0436410  90.3561440  17.8301870
  56.9085950  89.0228850  18.5345040  67.0691770  75.2419400   2.1413220
  66.7564430  75.3346230   3.0412290  67.8304240  75.8200430   2.0910650
  53.5873910  82.6079200   6.5990560  53.4671510  83.3341290   5.9871830
  53.2774800  81.8382110   6.1218470  51.2259280  85.7794340  12.4059200
  51.3039700  85.9143110  11.4614920  51.8400960  85.0710230  12.5987320
  52.4706910  87.4794530   8.8165380  52.0634990  87.6209120   7.9618980
  53.3619920  87.1954690   8.6136590  68.4269050  87.9258440  17.1537620
  68.5532110  87.6870320  16.2354800  68.4690430  87.0942980  17.6259700
  63.9666320  89.4229340   3.7114430  63.2731480  89.4206630   3.0516710
  64.7089180  88.9988660   3.2808600  68.2793060  79.9790900  18.1187360
  67.6637330  80.4870570  17.5902820  67.9589480  79.0789230  18.0613300
  51.2818800  86.8208510  14.9453660  51.4449840  86.3513870  14.1273030
  51.7471250  86.3132070  15.6102500  56.0537570  75.9514270   9.9814230
  55.6105720  76.7323810   9.6498750  56.6122560  76.2744160  10.6885170
  60.3407380  78.8182790  15.5849550  59.8786750  79.0265810  16.3969490
  59.9385490  78.0042140  15.2820220  65.3411890  80.0391740  16.7146210
  64.4905480  79.7397490  17.0355280  65.1813680  80.2833750  15.8030030
  62.4361600  81.5393490  18.8145000  62.7615010  80.7057240  18.4747230
  63.2241930  82.0622010  18.9623330  59.1696390  75.5724970   4.8620060
  58.5450570  75.5684840   5.5873370  59.0826510  74.7055930   4.4656030
  58.0913470  76.4961600  11.8403830  58.3885800  77.4024430  11.7595850
  58.6399030  76.0080380  11.2263400  55.8451790  81.0747840   7.7095480
  55.6192710  80.8585010   8.6142100  55.0644320  81.5076300   7.3641450
  63.0749550  81.0811210   6.3086130  62.4758440  81.8047010   6.1249750
  63.6229160  81.0187990   5.5262580  58.2851000  81.9733420  18.3755750
  58.1894600  81.0328150  18.2256150  59.1282980  82.1948490  17.9803820
  61.6814420  79.7174750   8.3389410  62.0743990  80.0346950   7.5258100
  62.0431270  78.8386630   8.4533930  53.4161540  78.3847090  16.5289530
  53.0224930  79.2322300  16.7362310  52.7279940  77.7473460  16.7198170
  59.9906590  78.4682060  19.5986270  59.3004910  78.2754260  20.2332360
  60.7338890  78.7516700  20.1310570  50.7178590  76.3075550  10.5619610
  50.4291640  76.8778410  11.2744590  51.4624350  75.8280000  10.9250840
  62.2669560  82.3080500  12.4340190  61.5350680  82.8167310  12.7830290
  61.8693900  81.4910480  12.1328970  58.7046950  78.9834700  10.8392680
  58.7083010  78.5424650   9.9897220  59.5998070  79.3052030  10.9464500
  54.5549330  78.8661190   9.7986890  54.2149380  79.3436420  10.5553940
  53.7926650  78.4126310   9.4387990  58.7667100  79.9846780   3.8299440
  58.8879920  79.9433260   4.7785260  58.3815610  80.8470930   3.6746170
  62.7295470  77.7614180  11.8463130  62.7468210  78.2122830  12.6904980
  62.4811050  76.8619820  12.0596570  57.7788600  82.2947920   3.2282740
  57.2105500  81.8466170   2.6018650  58.4877600  82.6540700   2.6947890
  66.1566220  75.1746360  17.6849510  66.4811990  74.4436020  18.2107490
  66.1922730  74.8560000  16.7830500  52.8557780  86.1959940  17.1049470
  52.4712570  85.5553610  17.7032430  53.1669970  86.8996060  17.6744200
  59.0054920  83.0436480  12.5858090  59.3725050  82.5695050  13.3319430
  58.8159980  83.9178050  12.9266430  51.8695410  77.7880170   8.7151560
  51.5842330  77.4235840   9.5530180  51.8074270  77.0560630   8.1014700
  56.7954290  82.0845120  14.9042300  56.4911360  82.9637100  15.1292660
  57.7500750  82.1444910  14.9399740  55.3236080  86.2906110   5.5009150
  54.5498340  85.7503730   5.3407870  56.0530710  85.7712720   5.1626910
  66.0824060  85.2871470  11.2935540  66.8023180  85.7826760  10.9031650
  65.8805880  84.6089360  10.6489410  61.5434000  76.6809430   5.4364930
  60.7298610  76.1822600   5.3610240  61.3495950  77.5207680   5.0201280
  61.4642860  85.3580530  17.1804540  61.3980170  84.4376200  16.9262130
  60.8348000  85.4555970  17.8949180  64.2582390  81.0529080   3.7327090
  65.1462010  81.3646310   3.5578430  64.2287480  80.1801330   3.3407670
  55.3673480  85.9586490   9.1387960  55.8852150  85.1554750   9.0844850
  54.9157500  85.8965630   9.9804790  60.2542980  87.2252770   4.4115260
  60.5958680  87.9695000   3.9158580  59.4255690  87.5383890   4.7740090
  52.8518020  82.9247860  16.0513660  52.4932960  83.5901710  16.6387000
  52.5572580  82.0931410  16.4226280  56.0531140  83.3832100  18.9353210
  55.7531280  83.5289280  18.0381030  56.8242380  82.8237390  18.8426600
  61.3959590  88.1801100  16.9308340  61.4104130  87.2482060  16.7127250
  60.6884690  88.2660860  17.5698110  66.5296660  82.3640920   3.2006950
  66.4460380  82.7955140   2.3503390  67.2490850  82.8239270   3.6333770
  67.6070800  84.8208440  16.2776920  66.8818990  85.4137220  16.0806310
  68.1346260  84.8131980  15.4790290  67.5583910  89.2183180   5.9289080
  66.9160070  88.5638800   6.2032800  67.1714570  89.6238270   5.1529750
  63.1370390  86.5468610   9.7760770  63.4894210  85.9496740   9.1162140
  62.2532720  86.2212840   9.9469020  59.2233670  87.3066300   7.1831180
  59.9104800  87.8535510   7.5638770  58.4366090  87.8507030   7.2180790
  51.3626070  82.9239120   2.6748260  52.2320920  83.2063920   2.9584180
  50.8716390  83.7374990   2.5597070  58.5260880  84.3112330   6.7956540
  58.9823660  85.1217580   7.0216730  58.1749090  83.9935470   7.6275030
  60.8293490  89.8218670  14.0248840  61.4735710  90.0278050  14.7022260
  61.1922930  89.0607070  13.5719690  54.4272660  74.6549980   7.2679060
  54.2987290  74.6467880   8.2163980  53.6034680  74.9933070   6.9170070
  62.1025570  87.8251020  12.7426290  62.7447800  87.1244180  12.8558460
  62.6274920  88.6049460  12.5623180  65.9481290  88.1099640   2.4665430
  65.7218870  87.3930080   3.0590070  65.5577490  87.8612080   1.6287180
  63.8763190  88.6245920  15.9462350  64.2119430  89.2112610  16.6240270
  62.9563530  88.4938630  16.1760140  51.4266590  76.4141100  16.7285760
  50.7125110  76.6138020  17.3338370  51.8461630  75.6380670  17.1000560
  65.5297540  86.0271580   4.1279590  65.2419240  86.4884270   4.9157470
  66.3249710  85.5669350   4.3963810  59.7051770  88.6737250  19.1150410
  59.3848640  87.9546490  19.6596100  59.0310130  89.3492320  19.1886470
  57.7465940  89.5197700   4.0583560  57.7376040  90.2527390   3.4428070
  56.8264300  89.2729280   4.1510520  53.3472580  84.7412590   4.8030320
  52.7400530  85.4811490   4.8125620  53.8221930  84.8311950   3.9768520
  62.9205370  78.9063410  14.4787210  63.2886190  78.0858620  14.8066780
  62.0603570  78.9665300  14.8942860  66.2867400  77.8620350   5.2874770
  65.6580560  77.9666020   4.5733000  65.7919320  78.0817130   6.0768650
  60.7325540  89.5825940   2.7208750  60.8337520  89.3789930   1.7910730
  59.8327280  89.3284220   2.9256530  58.2551430  80.1406300   6.7032650
  57.5467580  80.6092640   7.1446260  58.5395910  79.4828310   7.3377840
  59.8807360  81.5603000  14.7025180  60.3792610  82.0348820  15.3677030
  60.0230310  80.6366520  14.9095210  62.2866860  76.8656960   8.1428440
  62.1634640  76.8843090   7.1937950  63.2351420  76.9135900   8.2626840
  56.4586450  78.4491380   4.0783360  57.3076980  78.8861530   4.0123550
  56.0917720  78.7611640   4.9055420  67.0874220  77.7770960  15.5453570
  66.5847820  78.5176360  15.8847380  67.9030880  78.1654960  15.2290360
  65.3796230  83.0204140   8.9914930  64.4386370  83.0354370   9.1662620
  65.6940300  82.2340100   9.4375230  55.3577870  84.7023740   2.5518890
  56.1241140  84.5905100   3.1144320  55.4352560  84.0061710   1.8995660
  54.0524630  82.1348810   3.2351780  54.1328220  81.1876320   3.3469180
  54.9444380  82.4655690   3.3412440  51.7384820  88.3517770   6.2127830
  50.8124600  88.5938910   6.2033240  52.2041250  89.1792030   6.0912580
  62.6962250  87.5770140  19.4747310  62.0900410  87.6001740  18.7343060
  62.3916360  86.8453180  20.0114560  51.5795430  83.9563730  18.4707950
  52.0834450  83.3771010  19.0424180  50.8402850  84.2403960  19.0084320
  58.6333370  85.3634720  18.0043470  57.8679040  85.9319720  17.9198140
  58.8149330  85.0710930  17.1111700  61.7221780  85.7397950   2.6296230
  61.1731880  86.1867250   3.2738970  62.3441040  85.2347200   3.1533900
  65.7756720  87.0940050  18.5618490  66.5166190  87.4315810  18.0585950
  65.0129400  87.2632110  18.0088260  53.6118510  82.0993320  19.3658020
  53.6523850  81.8007190  20.2743250  54.4664010  82.5000930  19.2065540
  57.3896900  84.6988870   4.5261530  57.8113320  84.5328740   5.3692920
  57.5147740  83.8889100   4.0316670  55.5524320  80.6785420  17.3332510
  55.0220780  80.1876370  16.7055850  56.2212390  81.1069620  16.7990440
  64.4502380  85.1454880  17.0973700  64.8643400  85.2999960  17.9464120
  63.5153380  85.2710100  17.2599480  64.9224550  82.4851040  19.1012850
  65.5045320  81.7303360  19.0133330  65.0986320  83.0158480  18.3244330
  56.0396620  77.6447790  17.4129800  55.9453490  77.0268540  16.6880670
  55.4594010  78.3714080  17.1859710  58.8058060  76.2021030  14.4457190
  58.3575360  76.2245290  13.6002740  58.1723260  75.8040050  15.0427490
  59.2117610  85.0975360  15.0669630  59.6305720  85.9408090  14.8945870
  58.2926240  85.2347400  14.8376410  61.5481510  82.8291540  16.4507470
  61.6677720  82.2332680  17.1902310  62.4075510  82.8661230  16.0308770
  63.8869410  83.3828730  15.0269980  63.3604630  83.9071350  14.4235120
  64.2300750  84.0156120  15.6579710  58.3150280  79.3712890  17.7083290
  58.9049970  79.0628740  18.3961110  57.4970520  78.8992640  17.8643190
  63.1343710  78.9878700  17.9416310  62.4459230  78.3260240  17.8766300
  63.8549730  78.5416970  18.3864770  63.7644110  75.5830330   4.0006570
  64.0446400  74.7398230   4.3565990  62.9909840  75.8153440   4.5145320
  58.3023530  76.8157340   2.4453770  57.9545530  76.1381330   1.8656220
  58.5036300  76.3546850   3.2597160  54.1068730  87.1765140   2.2927370
  54.5443600  87.7194810   2.9484950  54.5916460  86.3512090   2.3023710
  51.3214530  89.9654170   9.7447630  51.6517540  89.0975230   9.5126270
  51.7505530  90.1712690  10.5752590  55.9176450  88.2963180   7.4049600
  55.6171990  88.1728150   8.3053510  55.8113940  87.4371770   6.9965330
  67.4466920  90.3341760  16.7706570  66.8468910  90.3934320  16.0270490
  67.5760820  89.3946740  16.9003420  68.6868370  88.0759580   2.1076280
  67.8561330  88.1436230   2.5783510  68.8640200  88.9663700   1.8043140
  68.1424830  84.8207060   4.6110480  68.9043740  85.3903710   4.7170170
  68.1579200  84.2534260   5.3818790  51.6429170  83.3444990   8.8418140
  50.9878010  83.0756630   8.1977840  52.4807120  83.2349470   8.3920120
  69.1484800  85.6757160   9.4552410  69.5193630  84.8924480   9.0488380
  69.7886730  86.3646260   9.2769710  66.1318560  87.0593740  14.8682730
  65.3178400  87.4890900  15.1308520  66.5392760  87.6712150  14.2551780
  68.1944000  85.1141430   1.7683000  68.4692840  86.0220310   1.6402220
  68.0054740  85.0503960   2.7044990  64.5919610  78.1386280   3.0636630
  65.0104490  77.9517260   2.2233290  64.2855670  77.2865330   3.3739560
  68.0909340  83.0510420   6.7612430  67.7152940  82.2838350   6.3293720
  67.3612460  83.4333120   7.2487360  52.6805100  83.7297560  13.3821480
  53.0478140  83.6424960  14.2617500  52.1115920  82.9664110  13.2828340
  67.4808960  82.1981940  16.3951950  67.2495050  81.9694690  15.4949900
  67.7413510  83.1181490  16.3496840  52.2321100  80.6406650  17.2879900
  51.3377150  80.6073410  17.6273610  52.7718650  80.8393440  18.0531150
  65.9197030  77.4238370  19.1731650  66.7967210  77.4321770  19.5565650
  65.9317870  76.6869210  18.5624000  50.8567250  80.5543920   4.7843470
  49.9531330  80.8174120   4.6095130  51.3407870  80.8255090   4.0043430
  67.3660300  81.2767910  10.0619670  67.8897780  80.7830560   9.4309840
  67.9519720  81.4118270  10.8067240  67.5450020  81.3607780  13.5839220
  66.5952730  81.3271320  13.6984210  67.7263030  82.2707890  13.3488990
  53.3994460  79.6109460   2.6937850  54.1086160  79.1892680   2.2085130
  52.6834400  79.6784690   2.0621200  66.8560270  80.5341260   6.0012080
  67.3519390  80.3012130   6.7860960  66.6576340  79.6953100   5.5849720
  52.7360810  74.9154980  11.6363120  53.3837000  74.3652360  11.1958280
  53.1562650  75.1698130  12.4578930  68.2847430  79.1702210   8.5349760
  68.1746710  79.0158250   9.4732030  69.0455020  78.6423150   8.2925170
  66.6313150  75.1096340  14.9932760  67.2685370  75.7230480  15.3591950
  66.7788040  75.1457000  14.0481990  69.1737700  77.0010130   1.7755900
  70.0987010  76.8691310   1.5674190  69.1513490  77.0802950   2.7292350
  69.2476190  77.7720790   4.4012610  68.4527690  77.7065910   4.9305520
  69.4519470  78.7071430   4.3897960  52.4892810  75.0710650  14.3788440
  52.1407630  75.5274470  15.1446620  52.1580510  74.1767780  14.4610870
  54.0957180  88.2430250  18.5441630  54.0526810  87.8723160  19.4256090
  54.2268190  89.1807820  18.6843450  57.7963210  89.7989840  14.1451350
  57.5554570  90.0664400  13.2581870  58.7365850  89.9695570  14.2002210
  60.0017630  76.2622530  17.9007860  59.9406520  76.8544360  18.6503270
  60.9418010  76.1548490  17.7558120  62.6392190  75.9192590  17.5400150
  63.2532600  76.2371880  16.8781230  63.1841750  75.4341180  18.1596010
  53.1613450  74.5986850  17.6539210  53.7096440  74.4174900  16.8905320
  53.2268760  73.8080960  18.1895520  63.3800230  74.4824730  13.8669440
  62.5060070  74.8159840  13.6642370  63.2710980  74.0097910  14.6921310
  64.2872210  76.6895600  15.2511160  63.9585570  75.8747360  14.8712890
  65.2354510  76.6465410  15.1276850  53.5657440  88.5550880  14.6147450
  52.8391500  87.9356170  14.5473400  53.6266590  88.9491490  13.7445530
  61.1275050  75.3994570  12.8062350  60.3446840  75.8740070  13.0859110
  60.8337980  74.4949400  12.6975530  65.6796120  76.1017670  10.8511440
  66.1204210  76.0462770  10.0033040  65.4103710  77.0175680  10.9221620
  67.5434690  75.7332910   8.8620260  67.4823090  74.7894130   8.7151280
  68.3226720  75.8413000   9.4073720  52.4715460  75.7042050   5.3276070
  53.2294820  75.8170930   4.7540100  52.0092630  76.5411250   5.2819500
  59.0129270  77.8181320   8.3178380  58.2003780  77.4438210   7.9774260
  59.5170910  77.0626400   8.6199570  63.5154250  74.4823770   9.5561450
  64.1183620  75.0543980  10.0309970  62.7747240  75.0463210   9.3335350
  66.6588850  74.8845330   4.8301730  66.8539480  75.7828780   5.0969160
  65.8718720  74.6532410   5.3234680  54.8440610  76.2306100   3.8678040
  55.3733370  75.4435900   3.7385990  55.4768930  76.9097290   4.1013570
  57.0378450  75.9681240   6.9223430  56.4081190  75.2668550   7.0893560
  56.4983590  76.7285370   6.7056590  57.1634010  75.2465220  19.3575920
  56.8818280  75.7498820  18.5936740  57.5453710  74.4486970  18.9918050
  55.2157900  88.6305610   4.1489930  54.5866780  89.0990710   4.6975760
  55.3305730  87.7854830   4.5836120  63.7649470  74.6618800  19.9356390
  63.6514920  74.9813410  20.8307910  64.5819210  75.0631310  19.6393670
  62.6707620  63.9067780  65.3965090  62.5901670  62.9922390  65.1256800
  62.2572040  64.4034850  64.6904800  60.8025660  65.6846800  67.2774360
  60.0267760  65.2047240  67.5672930  61.4538590  65.0052450  67.1030520
  54.8191490  65.9966610  68.1550120  53.9876370  65.7415320  68.5546630
  55.4272470  66.0677380  68.8908040  64.8233090  70.0906990  66.0573490
  64.3614620  69.3194230  66.3860660  65.6358640  70.1173060  66.5625940
  54.7992750  70.0306700  68.3508140  55.1020790  69.1404440  68.1718360
  55.5436340  70.5876920  68.1230390  53.2283440  60.9568500  61.9392510
  52.3400140  61.2984470  61.8372390  53.5124630  60.7568820  61.0473340
  51.1916450  63.5574150  67.8232210  51.7632560  62.7896350  67.8235850
  51.1917990  63.8562910  66.9138820  61.0496400  72.3765000  65.6777480
  60.4307840  72.8322500  65.1071920  61.9048180  72.5316460  65.2767180
  60.2434650  68.3603990  67.2844520  60.1742930  67.4193930  67.1233650
  61.0054510  68.4505400  67.8567090  52.4341320  58.9658510  69.6101140
  52.2544160  58.0684260  69.8903900  52.0321400  59.5130380  70.2848090
  61.2739820  61.1674370  67.5113450  61.6504640  60.2946250  67.3987120
  61.1759330  61.5033070  66.6203890  55.4044830  59.5400000  62.9730890
  55.5111580  60.4403730  63.2799650  54.4937190  59.4917970  62.6825540
  65.0563940  58.6624810  64.4441790  65.8773560  58.1721380  64.4867270
  65.0898020  59.2522470  65.1973630  53.0527990  61.4619010  68.2183480
  53.7338100  61.7257380  68.8370880  52.7376040  60.6219880  68.5521490
  57.2452560  62.5086370  67.3056070  57.7530780  63.0067340  67.9461090
  57.7765800  61.7321570  67.1295430  69.3463490  60.6791560  71.0085420
  68.6415660  61.0673270  70.4900530  69.6121410  61.3741850  71.6106350
  55.5288660  57.1484930  71.5719490  55.5307100  57.6657320  70.7665390
  54.6992970  56.6715110  71.5489420  61.9159750  67.2604240  63.0709390
  61.2977020  67.7253690  62.5072110  62.4283000  67.9531720  63.4878900
  56.7791510  66.7880110  69.7492990  56.4460890  67.4149030  70.3914060
  56.9558190  67.3141990  68.9694660  65.2925420  60.6025190  67.2169330
  64.5880990  60.8910080  67.7972440  65.6537580  61.4125300  66.8568890
  55.2103990  58.8594890  69.5789940  55.5520800  59.7036940  69.2843810
  54.2719800  59.0078630  69.6955280  55.9910610  68.7560910  71.5642170
  56.6084610  69.4311990  71.2826620  55.1303730  69.1648890  71.4729670
  51.2842950  67.9460770  60.4449020  50.9070930  68.4347870  59.7133920
  51.5416020  68.6186050  61.0755550  66.9088200  70.2200320  69.4796810
  66.2251720  70.8899430  69.4713480  67.4482490  70.4180970  68.7141670
  68.3612340  60.0479980  67.6078540  67.4137250  60.0818960  67.7393970
  68.6862330  60.8618930  67.9927900  58.8931880  56.3477160  65.9034530
  59.2006860  55.7924050  65.1870030  57.9632580  56.4821620  65.7207520
  64.4446940  72.0644450  68.1941990  64.4574100  71.6606740  67.3264250
  63.8922160  72.8391740  68.0903420  65.7392360  68.7860670  63.2832160
  65.6288690  67.8435000  63.4081580  65.7360610  69.1476310  64.1694920
  63.8432380  66.9674290  69.5224600  64.2601170  66.7534400  68.6878060
  64.5672200  67.2247080  70.0933220  67.7894480  65.3661510  69.6140840
  66.9613110  65.4354600  69.1390970  68.3844960  65.9515820  69.1456670
  65.3109930  65.9746290  63.1429900  64.6922350  65.6365840  62.4956200
  65.2934380  65.3306050  63.8509090  64.7536490  62.1530830  70.5595710
  64.3407670  62.9784540  70.8135700  64.0212440  61.5675870  70.3672070
  56.8869280  64.9390730  65.4214380  56.4826280  64.2267980  64.9260280
  56.9732400  64.5943970  66.3102420  57.3550980  68.6258290  67.5853590
  57.0579270  68.0203760  66.9061370  58.3050800  68.6635600  67.4742950
  55.5997900  61.7133940  69.2013420  56.1512490  61.8229280  68.4266670
  56.1141410  62.0871540  69.9168650  65.4436590  72.1990160  71.2476690
  64.9667150  73.0062350  71.0549300  64.7598380  71.5468490  71.4002900
  56.4469410  68.3639980  74.2361390  55.5497940  68.5879950  74.4834790
  56.4722280  68.4874920  73.2872790  55.2740630  65.2353300  72.8118760
  55.1348400  66.1076100  73.1806160  54.3921990  64.8926110  72.6666700
  61.5970010  70.1529170  64.1183890  62.0365920  70.8953500  63.7039280
  61.5356900  70.3955740  65.0422850  57.0720980  71.1775000  75.0203910
  57.0436410  71.5817950  74.1532340  56.9085950  70.2485360  74.8575510
  53.5873910  63.8335710  62.9221030  53.4671510  64.5597800  62.3102300
  53.2774800  63.0638620  62.4448940  51.2259280  67.0050850  68.7289670
  51.3039700  67.1399620  67.7845390  51.8400960  66.2966740  68.9217790
  52.4706910  68.7051040  65.1395850  52.0634990  68.8465630  64.2849450
  53.3619920  68.4211200  64.9367060  68.4269050  69.1514950  73.4768090
  68.5532110  68.9126830  72.5585270  68.4690430  68.3199490  73.9490170
  62.2885790  72.8542950  72.0462900  62.8030460  72.7650960  72.8485330
  61.4454870  73.2002650  72.3390810  64.2640190  73.1398290  61.4746900
  64.1041330  72.8501230  62.3728730  64.0986900  72.3638420  60.9392130
  56.7428570  72.9196820  63.2518520  56.5671050  72.0032360  63.0386320
  55.8884310  73.2784110  63.4916320  63.9666320  70.6485850  60.0344900
  63.2731480  70.6463140  59.3747180  64.7089180  70.2245170  59.6039070
  63.5316250  72.2748560  64.1093390  63.9873200  71.4937940  64.4232010
  63.8708770  72.9855380  64.6534570  68.2793060  61.2047410  74.4417830
  67.6637330  61.7127080  73.9133290  67.9589480  60.3045740  74.3843770
  51.2818800  68.0465020  71.2684130  51.4449840  67.5770380  70.4503500
  51.7471250  67.5388580  71.9332970  56.0537570  57.1770780  66.3044700
  55.6105720  57.9580320  65.9729220  56.6122560  57.5000670  67.0115640
  60.3407380  60.0439300  71.9080020  59.8786750  60.2522320  72.7199960
  59.9385490  59.2298650  71.6050690  65.3411890  61.2648250  73.0376680
  64.4905480  60.9654000  73.3585750  65.1813680  61.5090260  72.1260500
  62.4361600  62.7650000  75.1375470  62.7615010  61.9313750  74.7977700
  63.2241930  63.2878520  75.2853800  58.0913470  57.7218110  68.1634300
  58.3885800  58.6280940  68.0826320  58.6399030  57.2336890  67.5493870
  55.8451790  62.3004350  64.0325950  55.6192710  62.0841520  64.9372570
  55.0644320  62.7332810  63.6871920  58.2851000  63.1989930  74.6986220
  58.1894600  62.2584660  74.5486620  59.1282980  63.4205000  74.3034290
  53.4161540  59.6103600  72.8520000  53.0224930  60.4578810  73.0592780
  52.7279940  58.9729970  73.0428640  50.7178590  57.5332060  66.8850080
  50.4291640  58.1034920  67.5975060  51.4624350  57.0536510  67.2481310
  50.9048820  61.4752180  58.0952800  50.8223490  62.4182940  58.2367790
  50.5531880  61.3327090  57.2165150  62.2669560  63.5337010  68.7570660
  61.5350680  64.0423820  69.1060760  61.8693900  62.7166990  68.4559440
  58.7046950  60.2091210  67.1623150  58.7083010  59.7681160  66.3127690
  59.5998070  60.5308540  67.2694970  54.5549330  60.0917700  66.1217360
  54.2149380  60.5692930  66.8784410  53.7926650  59.6382820  65.7618460
  62.7295470  58.9870690  68.1693600  62.7468210  59.4379340  69.0135450
  62.4811050  58.0876330  68.3827040  57.7788600  63.5204430  59.5513210
  57.2105500  63.0722680  58.9249120  58.4877600  63.8797210  59.0178360
  66.1566220  56.4002870  74.0079980  66.4811990  55.6692530  74.5337960
  66.1922730  56.0816510  73.1060970  52.8557780  67.4216450  73.4279940
  52.4712570  66.7810120  74.0262900  53.1669970  68.1252570  73.9974670
  59.0054920  64.2692990  68.9088560  59.3725050  63.7951560  69.6549900
  58.8159980  65.1434560  69.2496900  51.8695410  59.0136680  65.0382030
  51.5842330  58.6492350  65.8760650  51.8074270  58.2817140  64.4245170
  56.7954290  63.3101630  71.2272770  56.4911360  64.1893610  71.4523130
  57.7500750  63.3701420  71.2630210  55.3236080  67.5162620  61.8239620
  54.5498340  66.9760240  61.6638340  56.0530710  66.9969230  61.4857380
  66.0824060  66.5127980  67.6166010  66.8023180  67.0083270  67.2262120
  65.8805880  65.8345870  66.9719880  61.4642860  66.5837040  73.5035010
  61.3980170  65.6632710  73.2492600  60.8348000  66.6812480  74.2179650
  55.3673480  67.1843000  65.4618430  55.8852150  66.3811260  65.4075320
  54.9157500  67.1222140  66.3035260  60.2542980  68.4509280  60.7345730
  60.5958680  69.1951510  60.2389050  59.4255690  68.7640400  61.0970560
  52.8518020  64.1504370  72.3744130  52.4932960  64.8158220  72.9617470
  52.5572580  63.3187920  72.7456750  56.0531140  64.6088610  75.2583680
  55.7531280  64.7545790  74.3611500  56.8242380  64.0493900  75.1657070
  61.3959590  69.4057610  73.2538810  61.4104130  68.4738570  73.0357720
  60.6884690  69.4917370  73.8928580  66.5296660  63.5897430  59.5237420
  66.4460380  64.0211650  58.6733860  67.2490850  64.0495780  59.9564240
  67.6070800  66.0464950  72.6007390  66.8818990  66.6393730  72.4036780
  68.1346260  66.0388490  71.8020760  67.5583910  70.4439690  62.2519550
  66.9160070  69.7895310  62.5263270  67.1714570  70.8494780  61.4760220
  63.1370390  67.7725120  66.0991240  63.4894210  67.1753250  65.4392610
  62.2532720  67.4469350  66.2699490  59.2233670  68.5322810  63.5061650
  59.9104800  69.0792020  63.8869240  58.4366090  69.0763540  63.5411260
  51.3626070  64.1495630  58.9978730  52.2320920  64.4320430  59.2814650
  50.8716390  64.9631500  58.8827540  58.5260880  65.5368840  63.1187010
  58.9823660  66.3474090  63.3447200  58.1749090  65.2191980  63.9505500
  60.8293490  71.0475180  70.3479310  61.4735710  71.2534560  71.0252730
  61.1922930  70.2863580  69.8950160  54.4272660  55.8806490  63.5909530
  54.2987290  55.8724390  64.5394450  53.6034680  56.2189580  63.2400540
  62.1025570  69.0507530  69.0656760  62.7447800  68.3500690  69.1788930
  62.6274920  69.8305970  68.8853650  65.9481290  69.3356150  58.7895900
  65.7218870  68.6186590  59.3820540  65.5577490  69.0868590  57.9517650
  63.8763190  69.8502430  72.2692820  64.2119430  70.4369120  72.9470740
  62.9563530  69.7195140  72.4990610  51.7297320  73.3623010  59.5640360
  52.0894960  73.9612350  58.9097630  51.5889660  73.9082900  60.3375390
  51.4266590  57.6397610  73.0516230  50.7125110  57.8394530  73.6568840
  51.8461630  56.8637180  73.4231030  65.5297540  67.2528090  60.4510060
  65.2419240  67.7140780  61.2387940  66.3249710  66.7925860  60.7194280
  51.7139180  71.6277870  74.0382760  51.8230300  70.6872610  73.8978150
  51.0619740  71.8932620  73.3896490  59.7051770  69.8993760  75.4380880
  59.3848640  69.1803000  75.9826570  59.0310130  70.5748830  75.5116940
  57.7465940  70.7454210  60.3814030  57.7376040  71.4783900  59.7658540
  56.8264300  70.4985790  60.4740990  53.3472580  65.9669100  61.1260790
  52.7400530  66.7068000  61.1356090  53.8221930  66.0568460  60.2998990
  62.9205370  60.1319920  70.8017680  63.2886190  59.3115130  71.1297250
  62.0603570  60.1921810  71.2173330  66.2867400  59.0876860  61.6105240
  65.6580560  59.1922530  60.8963470  65.7919320  59.3073640  62.3999120
  60.7325540  70.8082450  59.0439220  60.8337520  70.6046440  58.1141200
  59.8327280  70.5540730  59.2487000  58.2551430  61.3662810  63.0263120
  57.5467580  61.8349150  63.4676730  58.5395910  60.7084820  63.6608310
  59.8807360  62.7859510  71.0255650  60.3792610  63.2605330  71.6907500
  60.0230310  61.8623030  71.2325680  62.2866860  58.0913470  64.4658910
  62.1634640  58.1099600  63.5168420  63.2351420  58.1392410  64.5857310
  59.3743650  73.3268770  63.7386890  59.6285150  73.2890160  62.8166260
  58.4256130  73.2002100  63.7315140  56.4586450  59.6747890  60.4013830
  57.3076980  60.1118040  60.3354020  56.0917720  59.9868150  61.2285890
  67.0874220  59.0027470  71.8684040  66.5847820  59.7432870  72.2077850
  67.9030880  59.3911470  71.5520830  65.3796230  64.2460650  65.3145400
  64.4386370  64.2610880  65.4893090  65.6940300  63.4596610  65.7605700
  55.3577870  65.9280250  58.8749360  56.1241140  65.8161610  59.4374790
  55.4352560  65.2318220  58.2226130  54.0524630  63.3605320  59.5582250
  54.1328220  62.4132830  59.6699650  54.9444380  63.6912200  59.6642910
  67.3821810  71.4169500  66.9899660  67.5069230  72.2400670  67.4623470
  68.2487370  71.2060230  66.6423810  54.8539340  73.5100710  66.6616790
  55.5901820  72.9616170  66.9325360  55.2380260  74.3756720  66.5222780
  51.7384820  69.5774280  62.5358300  50.8124600  69.8195420  62.5263710
  52.2041250  70.4048540  62.4143050  57.9641650  72.6831020  58.4842360
  58.7570260  72.9719850  58.0324150  57.4446000  72.2523190  57.8054840
  64.1262620  72.5306940  74.4087190  65.0784370  72.4464960  74.3587430
  63.9790840  73.1948650  75.0820980  67.0171820  71.9101150  59.9079100
  66.7313330  71.4966290  59.0933280  66.8191370  72.8388860  59.7879620
  51.5795430  65.1820240  74.7938420  52.0834450  64.6027520  75.3654650
  50.8402850  65.4660470  75.3314790  58.4819050  67.9034430  58.3484710
  58.3769690  67.2886780  59.0746090  58.3143270  67.3800320  57.5647720
  58.6333370  66.5891230  74.3273940  57.8679040  67.1576230  74.2428610
  58.8149330  66.2967440  73.4342170  61.7221780  66.9654460  58.9526700
  61.1731880  67.4123760  59.5969440  62.3441040  66.4603710  59.4764370
  65.7756720  68.3196560  74.8848960  66.5166190  68.6572320  74.3816420
  65.0129400  68.4888620  74.3318730  57.3896900  65.9245380  60.8492000
  57.8113320  65.7585250  61.6923390  57.5147740  65.1145610  60.3547140
  55.5524320  61.9041930  73.6562980  55.0220780  61.4132880  73.0286320
  56.2212390  62.3326130  73.1220910  64.4502380  66.3711390  73.4204170
  64.8643400  66.5256470  74.2694590  63.5153380  66.4966610  73.5829950
  64.9224550  63.7107550  75.4243320  65.5045320  62.9559870  75.3363800
  65.0986320  64.2414990  74.6474800  56.0396620  58.8704300  73.7360270
  55.9453490  58.2525050  73.0111140  55.4594010  59.5970590  73.5090180
  58.8058060  57.4277540  70.7687660  58.3575360  57.4501800  69.9233210
  58.1723260  57.0296560  71.3657960  59.2117610  66.3231870  71.3900100
  59.6305720  67.1664600  71.2176340  58.2926240  66.4603910  71.1606880
  61.5481510  64.0548050  72.7737940  61.6677720  63.4589190  73.5132780
  62.4075510  64.0917740  72.3539240  63.8869410  64.6085240  71.3500450
  63.3604630  65.1327860  70.7465590  64.2300750  65.2412630  71.9810180
  56.2855800  61.9978610  57.7950160  56.0844860  61.1345970  58.1563500
  56.1147850  61.9111970  56.8571760  57.0625030  72.6284880  72.5057830
  56.5246120  73.3530940  72.1866530  57.3158990  72.1515220  71.7155170
  58.3150280  60.5969400  74.0313760  58.9049970  60.2885250  74.7191580
  57.4970520  60.1249150  74.1873660  63.1343710  60.2135210  74.2646780
  62.4459230  59.5516750  74.1996770  63.8549730  59.7673480  74.7095240
  55.0838600  59.0979230  57.7828040  55.3864500  59.1046660  56.8747190
  55.8233190  58.7477090  58.2795700  59.9187240  73.8636090  72.7644480
  59.8445940  74.7671230  73.0716850  59.0166080  73.5447990  72.7366550
  60.4672570  73.0294600  60.3870840  61.3623360  73.3679570  60.4089600
  60.4990200  72.3074010  59.7595120  54.1068730  68.4021650  58.6157840
  54.5443600  68.9451320  59.2715420  54.5916460  67.5768600  58.6254180
  51.3214530  71.1910680  66.0678100  51.6517540  70.3231740  65.8356740
  51.7505530  71.3969200  66.8983060  55.9176450  69.5219690  63.7280070
  55.6171990  69.3984660  64.6283980  55.8113940  68.6628280  63.3195800
  51.8104740  72.0581270  68.8059730  51.3735730  72.2382070  69.6383880
  52.3782420  72.8155890  68.6641450  67.4466920  71.5598270  73.0937040
  66.8468910  71.6190830  72.3500960  67.5760820  70.6203250  73.2233890
  68.6868370  69.3016090  58.4306750  67.8561330  69.3692740  58.9013980
  68.8640200  70.1920210  58.1273610  68.1424830  66.0463570  60.9340950
  68.9043740  66.6160220  61.0400640  68.1579200  65.4790770  61.7049260
  51.6429170  64.5701500  65.1648610  50.9878010  64.3013140  64.5208310
  52.4807120  64.4605980  64.7150590  69.1484800  66.9013670  65.7782880
  69.5193630  66.1180990  65.3718850  69.7886730  67.5902770  65.6000180
  66.1318560  68.2850250  71.1913200  65.3178400  68.7147410  71.4538990
  66.5392760  68.8968660  70.5782250  68.1944000  66.3397940  58.0913470
  68.4692840  67.2476820  57.9632690  68.0054740  66.2760470  59.0275460
  68.0909340  64.2766930  63.0842900  67.7152940  63.5094860  62.6524190
  67.3612460  64.6589630  63.5717830  52.6805100  64.9554070  69.7051950
  53.0478140  64.8681470  70.5847970  52.1115920  64.1920620  69.6058810
  67.4808960  63.4238450  72.7182420  67.2495050  63.1951200  71.8180370
  67.7413510  64.3438000  72.6727310  52.2321100  61.8663160  73.6110370
  51.3377150  61.8329920  73.9504080  52.7718650  62.0649950  74.3761620
  65.9197030  58.6494880  75.4962120  66.7967210  58.6578280  75.8796120
  65.9317870  57.9125720  74.8854470  50.8567250  61.7800430  61.1073940
  49.9531330  62.0430630  60.9325600  51.3407870  62.0511600  60.3273900
  67.3660300  62.5024420  66.3850140  67.8897780  62.0087070  65.7540310
  67.9519720  62.6374780  67.1297710  67.5450020  62.5864290  69.9069690
  66.5952730  62.5527830  70.0214680  67.7263030  63.4964400  69.6719460
  53.3994460  60.8365970  59.0168320  54.1086160  60.4149190  58.5315600
  52.6834400  60.9041200  58.3851670  53.0468620  56.8905300  58.0570970
  53.7696750  57.4314240  58.3752190  53.3193140  56.6168720  57.1812510
  66.8560270  61.7597770  62.3242550  67.3519390  61.5268640  63.1091430
  66.6576340  60.9209610  61.9080190  52.7360810  56.1411490  67.9593590
  53.3837000  55.5908870  67.5188750  53.1562650  56.3954640  68.7809400
  68.2847430  60.3958720  64.8580230  68.1746710  60.2414760  65.7962500
  69.0455020  59.8679660  64.6155640  66.6313150  56.3352850  71.3163230
  67.2685370  56.9486990  71.6822420  66.7788040  56.3713510  70.3712460
  66.1894610  73.0368850  64.7181470  66.7853680  72.7153420  64.0415890
  66.4472760  72.5640670  65.5094740  52.4892810  56.2967160  70.7018910
  52.1407630  56.7530980  71.4677090  52.1580510  55.4024290  70.7841340
  54.0957180  69.4686760  74.8672100  54.0526810  69.0979670  75.7486560
  54.2268190  70.4064330  75.0073920  57.7963210  71.0246350  70.4681820
  57.5554570  71.2920910  69.5812340  58.7365850  71.1952080  70.5232680
  60.0017630  57.4879040  74.2238330  59.9406520  58.0800870  74.9733740
  60.9418010  57.3805000  74.0788590  62.6392190  57.1449100  73.8630620
  63.2532600  57.4628390  73.2011700  63.1841750  56.6597690  74.4826480
  69.0567370  73.0440730  71.2692460  68.5625650  73.4409600  70.5519590
  68.4480660  72.4189940  71.6629740  53.1613450  55.8243360  73.9769680
  53.7096440  55.6431410  73.2135790  53.2268760  55.0337470  74.5125990
  53.9345210  72.4149010  71.9869880  53.3405530  72.2833710  72.7259920
  53.9269050  71.5787150  71.5211980  63.3800230  55.7081240  70.1899910
  62.5060070  56.0416350  69.9872840  63.2710980  55.2354420  71.0151780
  64.2872210  57.9152110  71.5741630  63.9585570  57.1003870  71.1943360
  65.2354510  57.8721920  71.4507320  66.7406820  73.6864150  68.5479200
  66.2809790  74.4379960  68.1737220  66.1119280  72.9670620  68.4894000
  53.5657440  69.7807390  70.9377920  52.8391500  69.1612680  70.8703870
  53.6266590  70.1748000  70.0676000  57.1702540  71.9952390  67.7227330
  57.6867560  71.3839750  67.1975590  57.8199920  72.4981170  68.2138340
  59.9098040  72.8860880  68.5496310  60.1975850  72.6315180  67.6729320
  60.4221260  72.3338240  69.1401880  61.1275050  56.6251080  69.1292820
  60.3446840  57.0996580  69.4089580  60.8337980  55.7205910  69.0206000
  65.6796120  57.3274180  67.1741910  66.1204210  57.2719280  66.3263510
  65.4103710  58.2432190  67.2452090  67.5434690  56.9589420  65.1850730
  67.4823090  56.0150640  65.0381750  68.3226720  57.0669510  65.7304190
  51.8487440  73.0981780  64.1474680  51.6809480  72.4652460  64.8456570
  50.9821950  73.3041180  63.7968870  52.4715460  56.9298560  61.6506540
  53.2294820  57.0427440  61.0770570  52.0092630  57.7667760  61.6049970
  59.0129270  59.0437830  64.6408850  58.2003780  58.6694720  64.3004730
  59.5170910  58.2882910  64.9430040  63.5154250  55.7080280  65.8791920
  64.1183620  56.2800490  66.3540440  62.7747240  56.2719720  65.6565820
  53.4550140  71.7915010  61.5924820  52.9297760  72.1723040  60.8886780
  53.3794720  72.4165780  62.3134530  54.8440610  57.4562610  60.1908510
  55.3733370  56.6692410  60.0616460  55.4768930  58.1353800  60.4244040
  57.0378450  57.1937750  63.2453900  56.4081190  56.4925060  63.4124030
  56.4983590  57.9541880  63.0287060  59.9770400  73.8076980  75.9164510
  60.9037710  73.5721250  75.9600470  59.9620830  74.6348980  75.4350540
  68.2115460  73.3502550  62.9138760  68.3867650  72.6640290  62.2699680
  67.5137030  73.8749600  62.5215430  57.1634010  56.4721730  75.6806390
  56.8818280  56.9755330  74.9167210  57.5453710  55.6743480  75.3148520
  56.0543110  73.7397390  60.4674070  56.7861930  73.4556670  59.9197960
  56.3136780  73.5010670  61.3573450  55.2157900  69.8562120  60.4720400
  54.5866780  70.3247220  61.0206230  55.3305730  69.0111340  60.9066590
  54.8191490  65.9966610  49.3806630  53.9876370  65.7415320  49.7803140
  55.4272470  66.0677380  50.1164550  54.7992750  70.0306700  49.5764650
  55.1020790  69.1404440  49.3974870  55.5436340  70.5876920  49.3486900
  51.1916450  63.5574150  49.0488720  51.7632560  62.7896350  49.0492360
  51.1917990  63.8562910  48.1395330  61.0496400  72.3765000  46.9033990
  60.4307840  72.8322500  46.3328430  61.9048180  72.5316460  46.5023690
  60.2434650  68.3603990  48.5101030  60.1742930  67.4193930  48.3490160
  61.0054510  68.4505400  49.0823600  52.4341320  58.9658510  50.8357650
  52.2544160  58.0684260  51.1160410  52.0321400  59.5130380  51.5104600
  56.7791510  66.7880110  50.9749500  56.4460890  67.4149030  51.6170570
  56.9558190  67.3141990  50.1951170  55.9910610  68.7560910  52.7898680
  56.6084610  69.4311990  52.5083130  55.1303730  69.1648890  52.6986180
  51.2842950  67.9460770  41.6705530  50.9070930  68.4347870  40.9390430
  51.5416020  68.6186050  42.3012060  57.3550980  68.6258290  48.8110100
  57.0579270  68.0203760  48.1317880  58.3050800  68.6635600  48.6999460
  56.4469410  68.3639980  55.4617900  55.5497940  68.5879950  55.7091300
  56.4722280  68.4874920  54.5129300  55.2740630  65.2353300  54.0375270
  55.1348400  66.1076100  54.4062670  54.3921990  64.8926110  53.8923210
  57.0720980  71.1775000  56.2460420  57.0436410  71.5817950  55.3788850
  56.9085950  70.2485360  56.0832020  53.5873910  63.8335710  44.1477540
  53.4671510  64.5597800  43.5358810  53.2774800  63.0638620  43.6705450
  69.0235800  71.9602100  57.5424590  69.4995520  72.4384990  58.2213670
  69.6442960  71.8919590  56.8170090  51.2259280  67.0050850  49.9546180
  51.3039700  67.1399620  49.0101900  51.8400960  66.2966740  50.1474300
  52.4706910  68.7051040  46.3652360  52.0634990  68.8465630  45.5105960
  53.3619920  68.4211200  46.1623570  68.4269050  69.1514950  54.7024600
  68.5532110  68.9126830  53.7841780  68.4690430  68.3199490  55.1746680
  62.2885790  72.8542950  53.2719410  62.8030460  72.7650960  54.0741840
  61.4454870  73.2002650  53.5647320  64.2640190  73.1398290  42.7003410
  64.1041330  72.8501230  43.5985240  64.0986900  72.3638420  42.1648640
  56.7428570  72.9196820  44.4775030  56.5671050  72.0032360  44.2642830
  55.8884310  73.2784110  44.7172830  51.2818800  68.0465020  52.4940640
  51.4449840  67.5770380  51.6760010  51.7471250  67.5388580  53.1589480
  53.4161540  59.6103600  54.0776510  53.0224930  60.4578810  54.2849290
  52.7279940  58.9729970  54.2685150  52.8557780  67.4216450  54.6536450
  52.4712570  66.7810120  55.2519410  53.1669970  68.1252570  55.2231180
  55.3236080  67.5162620  43.0496130  54.5498340  66.9760240  42.8894850
  56.0530710  66.9969230  42.7113890  55.3673480  67.1843000  46.6874940
  55.8852150  66.3811260  46.6331830  54.9157500  67.1222140  47.5291770
  60.2542980  68.4509280  41.9602240  60.5958680  69.1951510  41.4645560
  59.4255690  68.7640400  42.3227070  52.8518020  64.1504370  53.6000640
  52.4932960  64.8158220  54.1873980  52.5572580  63.3187920  53.9713260
  56.0531140  64.6088610  56.4840190  55.7531280  64.7545790  55.5868010
  56.8242380  64.0493900  56.3913580  59.2233670  68.5322810  44.7318160
  59.9104800  69.0792020  45.1125750  58.4366090  69.0763540  44.7667770
  51.3626070  64.1495630  40.2235240  52.2320920  64.4320430  40.5071160
  50.8716390  64.9631500  40.1084050  60.8293490  71.0475180  51.5735820
  61.4735710  71.2534560  52.2509240  61.1922930  70.2863580  51.1206670
  51.7297320  73.3623010  40.7896870  52.0894960  73.9612350  40.1354140
  51.5889660  73.9082900  41.5631900  51.7139180  71.6277870  55.2639270
  51.8230300  70.6872610  55.1234660  51.0619740  71.8932620  54.6153000
  59.7051770  69.8993760  56.6637390  59.3848640  69.1803000  57.2083080
  59.0310130  70.5748830  56.7373450  57.7465940  70.7454210  41.6070540
  57.7376040  71.4783900  40.9915050  56.8264300  70.4985790  41.6997500
  53.3472580  65.9669100  42.3517300  52.7400530  66.7068000  42.3612600
  53.8221930  66.0568460  41.5255500  60.7325540  70.8082450  40.2695730
  60.8337520  70.6046440  39.3397710  59.8327280  70.5540730  40.4743510
  59.3743650  73.3268770  44.9643400  59.6285150  73.2890160  44.0422770
  58.4256130  73.2002100  44.9571650  54.0524630  63.3605320  40.7838760
  54.1328220  62.4132830  40.8956160  54.9444380  63.6912200  40.8899420
  54.8539340  73.5100710  47.8873300  55.5901820  72.9616170  48.1581870
  55.2380260  74.3756720  47.7479290  51.7384820  69.5774280  43.7614810
  50.8124600  69.8195420  43.7520220  52.2041250  70.4048540  43.6399560
  53.8597620  72.6946780  57.0758880  54.6610350  73.0158830  57.4894280
  53.3449440  72.3342360  57.7978790  57.9641650  72.6831020  39.7098870
  58.7570260  72.9719850  39.2580660  57.4446000  72.2523190  39.0311350
  62.6962250  68.8026650  57.0234290  62.0900410  68.8258250  56.2830040
  62.3916360  68.0709690  57.5601540  64.1262620  72.5306940  55.6343700
  65.0784370  72.4464960  55.5843940  63.9790840  73.1948650  56.3077490
  67.0171820  71.9101150  41.1335610  66.7313330  71.4966290  40.3189790
  66.8191370  72.8388860  41.0136130  51.5795430  65.1820240  56.0194930
  52.0834450  64.6027520  56.5911160  50.8402850  65.4660470  56.5571300
  58.4819050  67.9034430  39.5741220  58.3769690  67.2886780  40.3002600
  58.3143270  67.3800320  38.7904230  58.6333370  66.5891230  55.5530450
  57.8679040  67.1576230  55.4685120  58.8149330  66.2967440  54.6598680
  53.6118510  63.3249830  56.9145000  53.6523850  63.0263700  57.8230230
  54.4664010  63.7257440  56.7552520  55.5524320  61.9041930  54.8819490
  55.0220780  61.4132880  54.2542830  56.2212390  62.3326130  54.3477420
  57.0625030  72.6284880  53.7314340  56.5246120  73.3530940  53.4123040
  57.3158990  72.1515220  52.9411680  55.0838600  59.0979230  39.0084550
  55.3864500  59.1046660  38.1003700  55.8233190  58.7477090  39.5052210
  59.9187240  73.8636090  53.9900990  59.8445940  74.7671230  54.2973360
  59.0166080  73.5447990  53.9623060  60.4672570  73.0294600  41.6127350
  61.3623360  73.3679570  41.6346110  60.4990200  72.3074010  40.9851630
  54.1068730  68.4021650  39.8414350  54.5443600  68.9451320  40.4971930
  54.5916460  67.5768600  39.8510690  51.3214530  71.1910680  47.2934610
  51.6517540  70.3231740  47.0613250  51.7505530  71.3969200  48.1239570
  55.9176450  69.5219690  44.9536580  55.6171990  69.3984660  45.8540490
  55.8113940  68.6628280  44.5452310  51.8104740  72.0581270  50.0316240
  51.3735730  72.2382070  50.8640390  52.3782420  72.8155890  49.8897960
  51.6429170  64.5701500  46.3905120  50.9878010  64.3013140  45.7464820
  52.4807120  64.4605980  45.9407100  52.6805100  64.9554070  50.9308460
  53.0478140  64.8681470  51.8104480  52.1115920  64.1920620  50.8315320
  52.2321100  61.8663160  54.8366880  51.3377150  61.8329920  55.1760590
  52.7718650  62.0649950  55.6018130  53.3994460  60.8365970  40.2424830
  54.1086160  60.4149190  39.7572110  52.6834400  60.9041200  39.6108180
  53.0468620  56.8905300  39.2827480  53.7696750  57.4314240  39.6008700
  53.3193140  56.6168720  38.4069020  66.1894610  73.0368850  45.9437980
  66.7853680  72.7153420  45.2672400  66.4472760  72.5640670  46.7351250
  54.0957180  69.4686760  56.0928610  54.0526810  69.0979670  56.9743070
  54.2268190  70.4064330  56.2330430  57.7963210  71.0246350  51.6938330
  57.5554570  71.2920910  50.8068850  58.7365850  71.1952080  51.7489190
  69.0567370  73.0440730  52.4948970  68.5625650  73.4409600  51.7776100
  68.4480660  72.4189940  52.8886250  53.9345210  72.4149010  53.2126390
  53.3405530  72.2833710  53.9516430  53.9269050  71.5787150  52.7468490
  53.5657440  69.7807390  52.1634430  52.8391500  69.1612680  52.0960380
  53.6266590  70.1748000  51.2932510  57.1702540  71.9952390  48.9483840
  57.6867560  71.3839750  48.4232100  57.8199920  72.4981170  49.4394850
  59.9098040  72.8860880  49.7752820  60.1975850  72.6315180  48.8985830
  60.4221260  72.3338240  50.3658390  51.8487440  73.0981780  45.3731190
  51.6809480  72.4652460  46.0713080  50.9821950  73.3041180  45.0225380
  53.4550140  71.7915010  42.8181330  52.9297760  72.1723040  42.1143290
  53.3794720  72.4165780  43.5391040  54.8440610  57.4562610  41.4165020
  55.3733370  56.6692410  41.2872970  55.4768930  58.1353800  41.6500550
  59.9770400  73.8076980  57.1421020  60.9037710  73.5721250  57.1856980
  59.9620830  74.6348980  56.6607050  68.2115460  73.3502550  44.1395270
  68.3867650  72.6640290  43.4956190  67.5137030  73.8749600  43.7471940
  56.0543110  73.7397390  41.6930580  56.7861930  73.4556670  41.1454470
  56.3136780  73.5010670  42.5829960  55.2157900  69.8562120  41.6976910
  54.5866780  70.3247220  42.2462740  55.3305730  69.0111340  42.1323100
  66.5447960  73.0346840  56.9662060  67.3373280  72.5396070  56.7588020
  66.8381110  73.7136980  57.5737670  60.8025660  65.6846800  29.7287380
  60.0267760  65.2047240  30.0185950  61.4538590  65.0052450  29.5543540
  54.8191490  65.9966610  30.6063140  53.9876370  65.7415320  31.0059650
  55.4272470  66.0677380  31.3421060  64.8233090  70.0906990  28.5086510
  64.3614620  69.3194230  28.8373680  65.6358640  70.1173060  29.0138960
  54.7992750  70.0306700  30.8021160  55.1020790  69.1404440  30.6231380
  55.5436340  70.5876920  30.5743410  53.2283440  60.9568500  24.3905530
  52.3400140  61.2984470  24.2885410  53.5124630  60.7568820  23.4986360
  51.1916450  63.5574150  30.2745230  51.7632560  62.7896350  30.2748870
  51.1917990  63.8562910  29.3651840  61.0496400  72.3765000  28.1290500
  60.4307840  72.8322500  27.5584940  61.9048180  72.5316460  27.7280200
  60.2434650  68.3603990  29.7357540  60.1742930  67.4193930  29.5746670
  61.0054510  68.4505400  30.3080110  52.4341320  58.9658510  32.0614160
  52.2544160  58.0684260  32.3416920  52.0321400  59.5130380  32.7361110
  61.2739820  61.1674370  29.9626470  61.6504640  60.2946250  29.8500140
  61.1759330  61.5033070  29.0716910  55.4044830  59.5400000  25.4243910
  55.5111580  60.4403730  25.7312670  54.4937190  59.4917970  25.1338560
  53.0527990  61.4619010  30.6696500  53.7338100  61.7257380  31.2883900
  52.7376040  60.6219880  31.0034510  57.2452560  62.5086370  29.7569090
  57.7530780  63.0067340  30.3974110  57.7765800  61.7321570  29.5808450
  55.5288660  57.1484930  34.0232510  55.5307100  57.6657320  33.2178410
  54.6992970  56.6715110  34.0002440  61.9159750  67.2604240  25.5222410
  61.2977020  67.7253690  24.9585130  62.4283000  67.9531720  25.9391920
  56.7791510  66.7880110  32.2006010  56.4460890  67.4149030  32.8427080
  56.9558190  67.3141990  31.4207680  55.2103990  58.8594890  32.0302960
  55.5520800  59.7036940  31.7356830  54.2719800  59.0078630  32.1468300
  55.9910610  68.7560910  34.0155190  56.6084610  69.4311990  33.7339640
  55.1303730  69.1648890  33.9242690  51.2842950  67.9460770  22.8962040
  50.9070930  68.4347870  22.1646940  51.5416020  68.6186050  23.5268570
  66.9088200  70.2200320  31.9309830  66.2251720  70.8899430  31.9226500
  67.4482490  70.4180970  31.1654690  58.8931880  56.3477160  28.3547550
  59.2006860  55.7924050  27.6383050  57.9632580  56.4821620  28.1720540
  64.4446940  72.0644450  30.6455010  64.4574100  71.6606740  29.7777270
  63.8922160  72.8391740  30.5416440  63.8432380  66.9674290  31.9737620
  64.2601170  66.7534400  31.1391080  64.5672200  67.2247080  32.5446240
  61.2812640  64.4125990  25.0907670  60.3541920  64.3463370  25.3196140
  61.4337460  65.3506120  24.9762910  61.2681720  60.6842990  22.0874830
  60.3285390  60.8456950  22.1727290  61.5864980  61.4028670  21.5410820
  56.8869280  64.9390730  27.8727400  56.4826280  64.2267980  27.3773300
  56.9732400  64.5943970  28.7615440  57.3550980  68.6258290  30.0366610
  57.0579270  68.0203760  29.3574390  58.3050800  68.6635600  29.9255970
  55.5997900  61.7133940  31.6526440  56.1512490  61.8229280  30.8779690
  56.1141410  62.0871540  32.3681670  65.4436590  72.1990160  33.6989710
  64.9667150  73.0062350  33.5062320  64.7598380  71.5468490  33.8515920
  56.4469410  68.3639980  36.6874410  55.5497940  68.5879950  36.9347810
  56.4722280  68.4874920  35.7385810  63.4874630  65.2133100  22.6015670
  63.9267910  64.3755530  22.4553490  64.2003050  65.8462500  22.6879810
  55.2740630  65.2353300  35.2631780  55.1348400  66.1076100  35.6319180
  54.3921990  64.8926110  35.1179720  61.5970010  70.1529170  26.5696910
  62.0365920  70.8953500  26.1552300  61.5356900  70.3955740  27.4935870
  57.0720980  71.1775000  37.4716930  57.0436410  71.5817950  36.6045360
  56.9085950  70.2485360  37.3088530  67.0691770  56.4675910  20.9156710
  66.7564430  56.5602740  21.8155780  67.8304240  57.0456940  20.8654140
  53.5873910  63.8335710  25.3734050  53.4671510  64.5597800  24.7615320
  53.2774800  63.0638620  24.8961960  69.0235800  71.9602100  38.7681100
  69.4995520  72.4384990  39.4470180  69.6442960  71.8919590  38.0426600
  51.2259280  67.0050850  31.1802690  51.3039700  67.1399620  30.2358410
  51.8400960  66.2966740  31.3730810  52.4706910  68.7051040  27.5908870
  52.0634990  68.8465630  26.7362470  53.3619920  68.4211200  27.3880080
  62.2885790  72.8542950  34.4975920  62.8030460  72.7650960  35.2998350
  61.4454870  73.2002650  34.7903830  64.2640190  73.1398290  23.9259920
  64.1041330  72.8501230  24.8241750  64.0986900  72.3638420  23.3905150
  56.7428570  72.9196820  25.7031540  56.5671050  72.0032360  25.4899340
  55.8884310  73.2784110  25.9429340  63.9666320  70.6485850  22.4857920
  63.2731480  70.6463140  21.8260200  64.7089180  70.2245170  22.0552090
  63.5316250  72.2748560  26.5606410  63.9873200  71.4937940  26.8745030
  63.8708770  72.9855380  27.1047590  51.2818800  68.0465020  33.7197150
  51.4449840  67.5770380  32.9016520  51.7471250  67.5388580  34.3845990
  56.0537570  57.1770780  28.7557720  55.6105720  57.9580320  28.4242240
  56.6122560  57.5000670  29.4628660  59.1696390  56.7981480  23.6363550
  58.5450570  56.7941350  24.3616860  59.0826510  55.9312440  23.2399520
  58.0913470  57.7218110  30.6147320  58.3885800  58.6280940  30.5339340
  58.6399030  57.2336890  30.0006890  55.8451790  62.3004350  26.4838970
  55.6192710  62.0841520  27.3885590  55.0644320  62.7332810  26.1384940
  61.6814420  60.9431260  27.1132900  62.0743990  61.2603460  26.3001590
  62.0431270  60.0643140  27.2277420  53.4161540  59.6103600  35.3033020
  53.0224930  60.4578810  35.5105800  52.7279940  58.9729970  35.4941660
  50.7178590  57.5332060  29.3363100  50.4291640  58.1034920  30.0488080
  51.4624350  57.0536510  29.6994330  50.9048820  61.4752180  20.5465820
  50.8223490  62.4182940  20.6880810  50.5531880  61.3327090  19.6678170
  62.2669560  63.5337010  31.2083680  61.5350680  64.0423820  31.5573780
  61.8693900  62.7166990  30.9072460  58.7046950  60.2091210  29.6136170
  58.7083010  59.7681160  28.7640710  59.5998070  60.5308540  29.7207990
  54.5549330  60.0917700  28.5730380  54.2149380  60.5692930  29.3297430
  53.7926650  59.6382820  28.2131480  58.7667100  61.2103290  22.6042930
  58.8879920  61.1689770  23.5528750  58.3815610  62.0727440  22.4489660
  57.7788600  63.5204430  22.0026230  57.2105500  63.0722680  21.3762140
  58.4877600  63.8797210  21.4691380  52.8557780  67.4216450  35.8792960
  52.4712570  66.7810120  36.4775920  53.1669970  68.1252570  36.4487690
  59.0054920  64.2692990  31.3601580  59.3725050  63.7951560  32.1062920
  58.8159980  65.1434560  31.7009920  51.8695410  59.0136680  27.4895050
  51.5842330  58.6492350  28.3273670  51.8074270  58.2817140  26.8758190
  56.7954290  63.3101630  33.6785790  56.4911360  64.1893610  33.9036150
  57.7500750  63.3701420  33.7143230  55.3236080  67.5162620  24.2752640
  54.5498340  66.9760240  24.1151360  56.0530710  66.9969230  23.9370400
  61.5434000  57.9065940  24.2108420  60.7298610  57.4079110  24.1353730
  61.3495950  58.7464190  23.7944770  61.4642860  66.5837040  35.9548030
  61.3980170  65.6632710  35.7005620  60.8348000  66.6812480  36.6692670
  64.2582390  62.2785590  22.5070580  65.1462010  62.5902820  22.3321920
  64.2287480  61.4057840  22.1151160  55.3673480  67.1843000  27.9131450
  55.8852150  66.3811260  27.8588340  54.9157500  67.1222140  28.7548280
  60.2542980  68.4509280  23.1858750  60.5958680  69.1951510  22.6902070
  59.4255690  68.7640400  23.5483580  52.8518020  64.1504370  34.8257150
  52.4932960  64.8158220  35.4130490  52.5572580  63.3187920  35.1969770
  61.3959590  69.4057610  35.7051830  61.4104130  68.4738570  35.4870740
  60.6884690  69.4917370  36.3441600  66.5296660  63.5897430  21.9750440
  66.4460380  64.0211650  21.1246880  67.2490850  64.0495780  22.4077260
  67.5583910  70.4439690  24.7032570  66.9160070  69.7895310  24.9776290
  67.1714570  70.8494780  23.9273240  63.1370390  67.7725120  28.5504260
  63.4894210  67.1753250  27.8905630  62.2532720  67.4469350  28.7212510
  59.2233670  68.5322810  25.9574670  59.9104800  69.0792020  26.3382260
  58.4366090  69.0763540  25.9924280  51.3626070  64.1495630  21.4491750
  52.2320920  64.4320430  21.7327670  50.8716390  64.9631500  21.3340560
  58.5260880  65.5368840  25.5700030  58.9823660  66.3474090  25.7960220
  58.1749090  65.2191980  26.4018520  60.8293490  71.0475180  32.7992330
  61.4735710  71.2534560  33.4765750  61.1922930  70.2863580  32.3463180
  54.4272660  55.8806490  26.0422550  54.2987290  55.8724390  26.9907470
  53.6034680  56.2189580  25.6913560  62.1025570  69.0507530  31.5169780
  62.7447800  68.3500690  31.6301950  62.6274920  69.8305970  31.3366670
  65.9481290  69.3356150  21.2408920  65.7218870  68.6186590  21.8333560
  65.5577490  69.0868590  20.4030670  63.8763190  69.8502430  34.7205840
  64.2119430  70.4369120  35.3983760  62.9563530  69.7195140  34.9503630
  51.7297320  73.3623010  22.0153380  52.0894960  73.9612350  21.3610650
  51.5889660  73.9082900  22.7888410  51.4266590  57.6397610  35.5029250
  50.7125110  57.8394530  36.1081860  51.8461630  56.8637180  35.8744050
  65.5297540  67.2528090  22.9023080  65.2419240  67.7140780  23.6900960
  66.3249710  66.7925860  23.1707300  51.7139180  71.6277870  36.4895780
  51.8230300  70.6872610  36.3491170  51.0619740  71.8932620  35.8409510
  59.7051770  69.8993760  37.8893900  59.3848640  69.1803000  38.4339590
  59.0310130  70.5748830  37.9629960  57.7465940  70.7454210  22.8327050
  57.7376040  71.4783900  22.2171560  56.8264300  70.4985790  22.9254010
  53.3472580  65.9669100  23.5773810  52.7400530  66.7068000  23.5869110
  53.8221930  66.0568460  22.7512010  60.7325540  70.8082450  21.4952240
  60.8337520  70.6046440  20.5654220  59.8327280  70.5540730  21.7000020
  58.2551430  61.3662810  25.4776140  57.5467580  61.8349150  25.9189750
  58.5395910  60.7084820  26.1121330  59.8807360  62.7859510  33.4768670
  60.3792610  63.2605330  34.1420520  60.0230310  61.8623030  33.6838700
  62.2866860  58.0913470  26.9171930  62.1634640  58.1099600  25.9681440
  63.2351420  58.1392410  27.0370330  59.3743650  73.3268770  26.1899910
  59.6285150  73.2890160  25.2679280  58.4256130  73.2002100  26.1828160
  56.4586450  59.6747890  22.8526850  57.3076980  60.1118040  22.7867040
  56.0917720  59.9868150  23.6798910  55.3577870  65.9280250  21.3262380
  56.1241140  65.8161610  21.8887810  55.4352560  65.2318220  20.6739150
  54.0524630  63.3605320  22.0095270  54.1328220  62.4132830  22.1212670
  54.9444380  63.6912200  22.1155930  67.3821810  71.4169500  29.4412680
  67.5069230  72.2400670  29.9136490  68.2487370  71.2060230  29.0936830
  54.8539340  73.5100710  29.1129810  55.5901820  72.9616170  29.3838380
  55.2380260  74.3756720  28.9735800  51.7384820  69.5774280  24.9871320
  50.8124600  69.8195420  24.9776730  52.2041250  70.4048540  24.8656070
  53.8597620  72.6946780  38.3015390  54.6610350  73.0158830  38.7150790
  53.3449440  72.3342360  39.0235300  57.9641650  72.6831020  20.9355380
  58.7570260  72.9719850  20.4837170  57.4446000  72.2523190  20.2567860
  64.1262620  72.5306940  36.8600210  65.0784370  72.4464960  36.8100450
  63.9790840  73.1948650  37.5334000  67.0171820  71.9101150  22.3592120
  66.7313330  71.4966290  21.5446300  66.8191370  72.8388860  22.2392640
  51.5795430  65.1820240  37.2451440  52.0834450  64.6027520  37.8167670
  50.8402850  65.4660470  37.7827810  58.4819050  67.9034430  20.7997730
  58.3769690  67.2886780  21.5259110  58.3143270  67.3800320  20.0160740
  58.6333370  66.5891230  36.7786960  57.8679040  67.1576230  36.6941630
  58.8149330  66.2967440  35.8855190  61.7221780  66.9654460  21.4039720
  61.1731880  67.4123760  22.0482460  62.3441040  66.4603710  21.9277390
  53.6118510  63.3249830  38.1401510  53.6523850  63.0263700  39.0486740
  54.4664010  63.7257440  37.9809030  57.3896900  65.9245380  23.3005020
  57.8113320  65.7585250  24.1436410  57.5147740  65.1145610  22.8060160
  55.5524320  61.9041930  36.1076000  55.0220780  61.4132880  35.4799340
  56.2212390  62.3326130  35.5733930  59.9024540  64.9482990  20.5482120
  60.4230200  64.2332010  20.1823270  60.5492940  65.5868860  20.8482630
  56.0396620  58.8704300  36.1873290  55.9453490  58.2525050  35.4624160
  55.4594010  59.5970590  35.9603200  58.8058060  57.4277540  33.2200680
  58.3575360  57.4501800  32.3746230  58.1723260  57.0296560  33.8170980
  59.2117610  66.3231870  33.8413120  59.6305720  67.1664600  33.6689360
  58.2926240  66.4603910  33.6119900  61.5481510  64.0548050  35.2250960
  61.6677720  63.4589190  35.9645800  62.4075510  64.0917740  34.8052260
  56.2855800  61.9978610  20.2463180  56.0844860  61.1345970  20.6076520
  56.1147850  61.9111970  19.3084780  57.0625030  72.6284880  34.9570850
  56.5246120  73.3530940  34.6379550  57.3158990  72.1515220  34.1668190
  58.3150280  60.5969400  36.4826780  58.9049970  60.2885250  37.1704600
  57.4970520  60.1249150  36.6386680  63.7644110  56.8086840  22.7750060
  64.0446400  55.9654740  23.1309480  62.9909840  57.0409950  23.2888810
  55.0838600  59.0979230  20.2341060  55.3864500  59.1046660  19.3260210
  55.8233190  58.7477090  20.7308720  59.9187240  73.8636090  35.2157500
  59.8445940  74.7671230  35.5229870  59.0166080  73.5447990  35.1879570
  58.3023530  58.0413850  21.2197260  57.9545530  57.3637840  20.6399710
  58.5036300  57.5803360  22.0340650  60.4672570  73.0294600  22.8383860
  61.3623360  73.3679570  22.8602620  60.4990200  72.3074010  22.2108140
  54.1068730  68.4021650  21.0670860  54.5443600  68.9451320  21.7228440
  54.5916460  67.5768600  21.0767200  51.3214530  71.1910680  28.5191120
  51.6517540  70.3231740  28.2869760  51.7505530  71.3969200  29.3496080
  55.9176450  69.5219690  26.1793090  55.6171990  69.3984660  27.0797000
  55.8113940  68.6628280  25.7708820  51.8104740  72.0581270  31.2572750
  51.3735730  72.2382070  32.0896900  52.3782420  72.8155890  31.1154470
  67.4466920  71.5598270  35.5450060  66.8468910  71.6190830  34.8013980
  67.5760820  70.6203250  35.6746910  68.6868370  69.3016090  20.8819770
  67.8561330  69.3692740  21.3527000  68.8640200  70.1920210  20.5786630
  51.6429170  64.5701500  27.6161630  50.9878010  64.3013140  26.9721330
  52.4807120  64.4605980  27.1663610  68.1944000  66.3397940  20.5426490
  68.4692840  67.2476820  20.4145710  68.0054740  66.2760470  21.4788480
  64.5919610  59.3642790  21.8380120  65.0104490  59.1773770  20.9976780
  64.2855670  58.5121840  22.1483050  52.6805100  64.9554070  32.1564970
  53.0478140  64.8681470  33.0360990  52.1115920  64.1920620  32.0571830
  52.2321100  61.8663160  36.0623390  51.3377150  61.8329920  36.4017100
  52.7718650  62.0649950  36.8274640  50.8567250  61.7800430  23.5586960
  49.9531330  62.0430630  23.3838620  51.3407870  62.0511600  22.7786920
  53.3994460  60.8365970  21.4681340  54.1086160  60.4149190  20.9828620
  52.6834400  60.9041200  20.8364690  53.0468620  56.8905300  20.5083990
  53.7696750  57.4314240  20.8265210  53.3193140  56.6168720  19.6325530
  52.7360810  56.1411490  30.4106610  53.3837000  55.5908870  29.9701770
  53.1562650  56.3954640  31.2322420  69.1737700  58.2266640  20.5499390
  70.0987010  58.0947820  20.3417680  69.1513490  58.3059460  21.5035840
  66.1894610  73.0368850  27.1694490  66.7853680  72.7153420  26.4928910
  66.4472760  72.5640670  27.9607760  52.4892810  56.2967160  33.1531930
  52.1407630  56.7530980  33.9190110  52.1580510  55.4024290  33.2354360
  54.0957180  69.4686760  37.3185120  54.0526810  69.0979670  38.1999580
  54.2268190  70.4064330  37.4586940  57.7963210  71.0246350  32.9194840
  57.5554570  71.2920910  32.0325360  58.7365850  71.1952080  32.9745700
  53.1613450  55.8243360  36.4282700  53.7096440  55.6431410  35.6648810
  53.2268760  55.0337470  36.9639010  53.9345210  72.4149010  34.4382900
  53.3405530  72.2833710  35.1772940  53.9269050  71.5787150  33.9725000
  66.7406820  73.6864150  30.9992220  66.2809790  74.4379960  30.6250240
  66.1119280  72.9670620  30.9407020  53.5657440  69.7807390  33.3890940
  52.8391500  69.1612680  33.3216890  53.6266590  70.1748000  32.5189020
  57.1702540  71.9952390  30.1740350  57.6867560  71.3839750  29.6488610
  57.8199920  72.4981170  30.6651360  59.9098040  72.8860880  31.0009330
  60.1975850  72.6315180  30.1242340  60.4221260  72.3338240  31.5914900
  61.1275050  56.6251080  31.5805840  60.3446840  57.0996580  31.8602600
  60.8337980  55.7205910  31.4719020  51.8487440  73.0981780  26.5987700
  51.6809480  72.4652460  27.2969590  50.9821950  73.3041180  26.2481890
  52.4715460  56.9298560  24.1019560  53.2294820  57.0427440  23.5283590
  52.0092630  57.7667760  24.0562990  59.0129270  59.0437830  27.0921870
  58.2003780  58.6694720  26.7517750  59.5170910  58.2882910  27.3943060
  53.4550140  71.7915010  24.0437840  52.9297760  72.1723040  23.3399800
  53.3794720  72.4165780  24.7647550  54.8440610  57.4562610  22.6421530
  55.3733370  56.6692410  22.5129480  55.4768930  58.1353800  22.8757060
  57.0378450  57.1937750  25.6966920  56.4081190  56.4925060  25.8637050
  56.4983590  57.9541880  25.4800080  59.9770400  73.8076980  38.3677530
  60.9037710  73.5721250  38.4113490  59.9620830  74.6348980  37.8863560
  68.2115460  73.3502550  25.3651780  68.3867650  72.6640290  24.7212700
  67.5137030  73.8749600  24.9728450  56.0543110  73.7397390  22.9187090
  56.7861930  73.4556670  22.3710980  56.3136780  73.5010670  23.8086470
  55.2157900  69.8562120  22.9233420  54.5866780  70.3247220  23.4719250
  55.3305730  69.0111340  23.3579610  66.5447960  73.0346840  38.1918570
  67.3373280  72.5396070  37.9844530  66.8381110  73.7136980  38.7994180
  62.6707620  63.9067780   9.0734620  62.5901670  62.9922390   8.8026330
  62.2572040  64.4034850   8.3674330  60.8025660  65.6846800  10.9543890
  60.0267760  65.2047240  11.2442460  61.4538590  65.0052450  10.7800050
  54.8191490  65.9966610  11.8319650  53.9876370  65.7415320  12.2316160
  55.4272470  66.0677380  12.5677570  64.8233090  70.0906990   9.7343020
  64.3614620  69.3194230  10.0630190  65.6358640  70.1173060  10.2395470
  54.7992750  70.0306700  12.0277670  55.1020790  69.1404440  11.8487890
  55.5436340  70.5876920  11.7999920  53.2283440  60.9568500   5.6162040
  52.3400140  61.2984470   5.5141920  53.5124630  60.7568820   4.7242870
  51.1916450  63.5574150  11.5001740  51.7632560  62.7896350  11.5005380
  51.1917990  63.8562910  10.5908350  61.0496400  72.3765000   9.3547010
  60.4307840  72.8322500   8.7841450  61.9048180  72.5316460   8.9536710
  60.2434650  68.3603990  10.9614050  60.1742930  67.4193930  10.8003180
  61.0054510  68.4505400  11.5336620  52.4341320  58.9658510  13.2870670
  52.2544160  58.0684260  13.5673430  52.0321400  59.5130380  13.9617620
  61.2739820  61.1674370  11.1882980  61.6504640  60.2946250  11.0756650
  61.1759330  61.5033070  10.2973420  55.4044830  59.5400000   6.6500420
  55.5111580  60.4403730   6.9569180  54.4937190  59.4917970   6.3595070
  65.0563940  58.6624810   8.1211320  65.8773560  58.1721380   8.1636800
  65.0898020  59.2522470   8.8743160  53.0527990  61.4619010  11.8953010
  53.7338100  61.7257380  12.5140410  52.7376040  60.6219880  12.2291020
  57.2452560  62.5086370  10.9825600  57.7530780  63.0067340  11.6230620
  57.7765800  61.7321570  10.8064960  69.3463490  60.6791560  14.6854950
  68.6415660  61.0673270  14.1670060  69.6121410  61.3741850  15.2875880
  55.5288660  57.1484930  15.2489020  55.5307100  57.6657320  14.4434920
  54.6992970  56.6715110  15.2258950  61.9159750  67.2604240   6.7478920
  61.2977020  67.7253690   6.1841640  62.4283000  67.9531720   7.1648430
  56.7791510  66.7880110  13.4262520  56.4460890  67.4149030  14.0683590
  56.9558190  67.3141990  12.6464190  65.2925420  60.6025190  10.8938860
  64.5880990  60.8910080  11.4741970  65.6537580  61.4125300  10.5338420
  55.2103990  58.8594890  13.2559470  55.5520800  59.7036940  12.9613340
  54.2719800  59.0078630  13.3724810  55.9910610  68.7560910  15.2411700
  56.6084610  69.4311990  14.9596150  55.1303730  69.1648890  15.1499200
  51.2842950  67.9460770   4.1218550  50.9070930  68.4347870   3.3903450
  51.5416020  68.6186050   4.7525080  66.9088200  70.2200320  13.1566340
  66.2251720  70.8899430  13.1483010  67.4482490  70.4180970  12.3911200
  68.3612340  60.0479980  11.2848070  67.4137250  60.0818960  11.4163500
  68.6862330  60.8618930  11.6697430  58.8931880  56.3477160   9.5804060
  59.2006860  55.7924050   8.8639560  57.9632580  56.4821620   9.3977050
  64.4446940  72.0644450  11.8711520  64.4574100  71.6606740  11.0033780
  63.8922160  72.8391740  11.7672950  65.7392360  68.7860670   6.9601690
  65.6288690  67.8435000   7.0851110  65.7360610  69.1476310   7.8464450
  63.8432380  66.9674290  13.1994130  64.2601170  66.7534400  12.3647590
  64.5672200  67.2247080  13.7702750  61.2812640  64.4125990   6.3164180
  60.3541920  64.3463370   6.5452650  61.4337460  65.3506120   6.2019420
  61.2681720  60.6842990   3.3131340  60.3285390  60.8456950   3.3983800
  61.5864980  61.4028670   2.7667330  67.7894480  65.3661510  13.2910370
  66.9613110  65.4354600  12.8160500  68.3844960  65.9515820  12.8226200
  65.3109930  65.9746290   6.8199430  64.6922350  65.6365840   6.1725730
  65.2934380  65.3306050   7.5278620  64.7536490  62.1530830  14.2365240
  64.3407670  62.9784540  14.4905230  64.0212440  61.5675870  14.0441600
  56.8869280  64.9390730   9.0983910  56.4826280  64.2267980   8.6029810
  56.9732400  64.5943970   9.9871950  57.3550980  68.6258290  11.2623120
  57.0579270  68.0203760  10.5830900  58.3050800  68.6635600  11.1512480
  55.5997900  61.7133940  12.8782950  56.1512490  61.8229280  12.1036200
  56.1141410  62.0871540  13.5938180  65.4436590  72.1990160  14.9246220
  64.9667150  73.0062350  14.7318830  64.7598380  71.5468490  15.0772430
  56.4469410  68.3639980  17.9130920  55.5497940  68.5879950  18.1604320
  56.4722280  68.4874920  16.9642320  63.4874630  65.2133100   3.8272180
  63.9267910  64.3755530   3.6810000  64.2003050  65.8462500   3.9136320
  55.2740630  65.2353300  16.4888290  55.1348400  66.1076100  16.8575690
  54.3921990  64.8926110  16.3436230  61.5970010  70.1529170   7.7953420
  62.0365920  70.8953500   7.3808810  61.5356900  70.3955740   8.7192380
  57.0720980  71.1775000  18.6973440  57.0436410  71.5817950  17.8301870
  56.9085950  70.2485360  18.5345040  67.0691770  56.4675910   2.1413220
  66.7564430  56.5602740   3.0412290  67.8304240  57.0456940   2.0910650
  53.5873910  63.8335710   6.5990560  53.4671510  64.5597800   5.9871830
  53.2774800  63.0638620   6.1218470  69.0235800  71.9602100  19.9937610
  69.4995520  72.4384990  20.6726690  69.6442960  71.8919590  19.2683110
  51.2259280  67.0050850  12.4059200  51.3039700  67.1399620  11.4614920
  51.8400960  66.2966740  12.5987320  52.4706910  68.7051040   8.8165380
  52.0634990  68.8465630   7.9618980  53.3619920  68.4211200   8.6136590
  68.4269050  69.1514950  17.1537620  68.5532110  68.9126830  16.2354800
  68.4690430  68.3199490  17.6259700  62.2885790  72.8542950  15.7232430
  62.8030460  72.7650960  16.5254860  61.4454870  73.2002650  16.0160340
  64.2640190  73.1398290   5.1516430  64.1041330  72.8501230   6.0498260
  64.0986900  72.3638420   4.6161660  56.7428570  72.9196820   6.9288050
  56.5671050  72.0032360   6.7155850  55.8884310  73.2784110   7.1685850
  63.9666320  70.6485850   3.7114430  63.2731480  70.6463140   3.0516710
  64.7089180  70.2245170   3.2808600  63.5316250  72.2748560   7.7862920
  63.9873200  71.4937940   8.1001540  63.8708770  72.9855380   8.3304100
  68.2793060  61.2047410  18.1187360  67.6637330  61.7127080  17.5902820
  67.9589480  60.3045740  18.0613300  51.2818800  68.0465020  14.9453660
  51.4449840  67.5770380  14.1273030  51.7471250  67.5388580  15.6102500
  56.0537570  57.1770780   9.9814230  55.6105720  57.9580320   9.6498750
  56.6122560  57.5000670  10.6885170  60.3407380  60.0439300  15.5849550
  59.8786750  60.2522320  16.3969490  59.9385490  59.2298650  15.2820220
  65.3411890  61.2648250  16.7146210  64.4905480  60.9654000  17.0355280
  65.1813680  61.5090260  15.8030030  62.4361600  62.7650000  18.8145000
  62.7615010  61.9313750  18.4747230  63.2241930  63.2878520  18.9623330
  59.1696390  56.7981480   4.8620060  58.5450570  56.7941350   5.5873370
  59.0826510  55.9312440   4.4656030  58.0913470  57.7218110  11.8403830
  58.3885800  58.6280940  11.7595850  58.6399030  57.2336890  11.2263400
  55.8451790  62.3004350   7.7095480  55.6192710  62.0841520   8.6142100
  55.0644320  62.7332810   7.3641450  63.0749550  62.3067720   6.3086130
  62.4758440  63.0303520   6.1249750  63.6229160  62.2444500   5.5262580
  58.2851000  63.1989930  18.3755750  58.1894600  62.2584660  18.2256150
  59.1282980  63.4205000  17.9803820  61.6814420  60.9431260   8.3389410
  62.0743990  61.2603460   7.5258100  62.0431270  60.0643140   8.4533930
  53.4161540  59.6103600  16.5289530  53.0224930  60.4578810  16.7362310
  52.7279940  58.9729970  16.7198170  59.9906590  59.6938570  19.5986270
  59.3004910  59.5010770  20.2332360  60.7338890  59.9773210  20.1310570
  50.7178590  57.5332060  10.5619610  50.4291640  58.1034920  11.2744590
  51.4624350  57.0536510  10.9250840  62.2669560  63.5337010  12.4340190
  61.5350680  64.0423820  12.7830290  61.8693900  62.7166990  12.1328970
  58.7046950  60.2091210  10.8392680  58.7083010  59.7681160   9.9897220
  59.5998070  60.5308540  10.9464500  54.5549330  60.0917700   9.7986890
  54.2149380  60.5692930  10.5553940  53.7926650  59.6382820   9.4387990
  58.7667100  61.2103290   3.8299440  58.8879920  61.1689770   4.7785260
  58.3815610  62.0727440   3.6746170  62.7295470  58.9870690  11.8463130
  62.7468210  59.4379340  12.6904980  62.4811050  58.0876330  12.0596570
  57.7788600  63.5204430   3.2282740  57.2105500  63.0722680   2.6018650
  58.4877600  63.8797210   2.6947890  66.1566220  56.4002870  17.6849510
  66.4811990  55.6692530  18.2107490  66.1922730  56.0816510  16.7830500
  52.8557780  67.4216450  17.1049470  52.4712570  66.7810120  17.7032430
  53.1669970  68.1252570  17.6744200  59.0054920  64.2692990  12.5858090
  59.3725050  63.7951560  13.3319430  58.8159980  65.1434560  12.9266430
  51.8695410  59.0136680   8.7151560  51.5842330  58.6492350   9.5530180
  51.8074270  58.2817140   8.1014700  56.7954290  63.3101630  14.9042300
  56.4911360  64.1893610  15.1292660  57.7500750  63.3701420  14.9399740
  55.3236080  67.5162620   5.5009150  54.5498340  66.9760240   5.3407870
  56.0530710  66.9969230   5.1626910  66.0824060  66.5127980  11.2935540
  66.8023180  67.0083270  10.9031650  65.8805880  65.8345870  10.6489410
  61.5434000  57.9065940   5.4364930  60.7298610  57.4079110   5.3610240
  61.3495950  58.7464190   5.0201280  61.4642860  66.5837040  17.1804540
  61.3980170  65.6632710  16.9262130  60.8348000  66.6812480  17.8949180
  64.2582390  62.2785590   3.7327090  65.1462010  62.5902820   3.5578430
  64.2287480  61.4057840   3.3407670  55.3673480  67.1843000   9.1387960
  55.8852150  66.3811260   9.0844850  54.9157500  67.1222140   9.9804790
  60.2542980  68.4509280   4.4115260  60.5958680  69.1951510   3.9158580
  59.4255690  68.7640400   4.7740090  52.8518020  64.1504370  16.0513660
  52.4932960  64.8158220  16.6387000  52.5572580  63.3187920  16.4226280
  56.0531140  64.6088610  18.9353210  55.7531280  64.7545790  18.0381030
  56.8242380  64.0493900  18.8426600  61.3959590  69.4057610  16.9308340
  61.4104130  68.4738570  16.7127250  60.6884690  69.4917370  17.5698110
  66.5296660  63.5897430   3.2006950  66.4460380  64.0211650   2.3503390
  67.2490850  64.0495780   3.6333770  67.6070800  66.0464950  16.2776920
  66.8818990  66.6393730  16.0806310  68.1346260  66.0388490  15.4790290
  67.5583910  70.4439690   5.9289080  66.9160070  69.7895310   6.2032800
  67.1714570  70.8494780   5.1529750  63.1370390  67.7725120   9.7760770
  63.4894210  67.1753250   9.1162140  62.2532720  67.4469350   9.9469020
  59.2233670  68.5322810   7.1831180  59.9104800  69.0792020   7.5638770
  58.4366090  69.0763540   7.2180790  51.3626070  64.1495630   2.6748260
  52.2320920  64.4320430   2.9584180  50.8716390  64.9631500   2.5597070
  58.5260880  65.5368840   6.7956540  58.9823660  66.3474090   7.0216730
  58.1749090  65.2191980   7.6275030  60.8293490  71.0475180  14.0248840
  61.4735710  71.2534560  14.7022260  61.1922930  70.2863580  13.5719690
  54.4272660  55.8806490   7.2679060  54.2987290  55.8724390   8.2163980
  53.6034680  56.2189580   6.9170070  62.1025570  69.0507530  12.7426290
  62.7447800  68.3500690  12.8558460  62.6274920  69.8305970  12.5623180
  65.9481290  69.3356150   2.4665430  65.7218870  68.6186590   3.0590070
  65.5577490  69.0868590   1.6287180  63.8763190  69.8502430  15.9462350
  64.2119430  70.4369120  16.6240270  62.9563530  69.7195140  16.1760140
  51.7297320  73.3623010   3.2409890  52.0894960  73.9612350   2.5867160
  51.5889660  73.9082900   4.0144920  51.4266590  57.6397610  16.7285760
  50.7125110  57.8394530  17.3338370  51.8461630  56.8637180  17.1000560
  65.5297540  67.2528090   4.1279590  65.2419240  67.7140780   4.9157470
  66.3249710  66.7925860   4.3963810  51.7139180  71.6277870  17.7152290
  51.8230300  70.6872610  17.5747680  51.0619740  71.8932620  17.0666020
  59.7051770  69.8993760  19.1150410  59.3848640  69.1803000  19.6596100
  59.0310130  70.5748830  19.1886470  57.7465940  70.7454210   4.0583560
  57.7376040  71.4783900   3.4428070  56.8264300  70.4985790   4.1510520
  53.3472580  65.9669100   4.8030320  52.7400530  66.7068000   4.8125620
  53.8221930  66.0568460   3.9768520  62.9205370  60.1319920  14.4787210
  63.2886190  59.3115130  14.8066780  62.0603570  60.1921810  14.8942860
  66.2867400  59.0876860   5.2874770  65.6580560  59.1922530   4.5733000
  65.7919320  59.3073640   6.0768650  60.7325540  70.8082450   2.7208750
  60.8337520  70.6046440   1.7910730  59.8327280  70.5540730   2.9256530
  58.2551430  61.3662810   6.7032650  57.5467580  61.8349150   7.1446260
  58.5395910  60.7084820   7.3377840  59.8807360  62.7859510  14.7025180
  60.3792610  63.2605330  15.3677030  60.0230310  61.8623030  14.9095210
  62.2866860  58.0913470   8.1428440  62.1634640  58.1099600   7.1937950
  63.2351420  58.1392410   8.2626840  59.3743650  73.3268770   7.4156420
  59.6285150  73.2890160   6.4935790  58.4256130  73.2002100   7.4084670
  56.4586450  59.6747890   4.0783360  57.3076980  60.1118040   4.0123550
  56.0917720  59.9868150   4.9055420  67.0874220  59.0027470  15.5453570
  66.5847820  59.7432870  15.8847380  67.9030880  59.3911470  15.2290360
  65.3796230  64.2460650   8.9914930  64.4386370  64.2610880   9.1662620
  65.6940300  63.4596610   9.4375230  55.3577870  65.9280250   2.5518890
  56.1241140  65.8161610   3.1144320  55.4352560  65.2318220   1.8995660
  54.0524630  63.3605320   3.2351780  54.1328220  62.4132830   3.3469180
  54.9444380  63.6912200   3.3412440  67.3821810  71.4169500  10.6669190
  67.5069230  72.2400670  11.1393000  68.2487370  71.2060230  10.3193340
  54.8539340  73.5100710  10.3386320  55.5901820  72.9616170  10.6094890
  55.2380260  74.3756720  10.1992310  51.7384820  69.5774280   6.2127830
  50.8124600  69.8195420   6.2033240  52.2041250  70.4048540   6.0912580
  53.8597620  72.6946780  19.5271900  54.6610350  73.0158830  19.9407300
  53.3449440  72.3342360  20.2491810  57.9641650  72.6831020   2.1611890
  58.7570260  72.9719850   1.7093680  57.4446000  72.2523190   1.4824370
  62.6962250  68.8026650  19.4747310  62.0900410  68.8258250  18.7343060
  62.3916360  68.0709690  20.0114560  64.1262620  72.5306940  18.0856720
  65.0784370  72.4464960  18.0356960  63.9790840  73.1948650  18.7590510
  67.0171820  71.9101150   3.5848630  66.7313330  71.4966290   2.7702810
  66.8191370  72.8388860   3.4649150  51.5795430  65.1820240  18.4707950
  52.0834450  64.6027520  19.0424180  50.8402850  65.4660470  19.0084320
  58.6333370  66.5891230  18.0043470  57.8679040  67.1576230  17.9198140
  58.8149330  66.2967440  17.1111700  61.7221780  66.9654460   2.6296230
  61.1731880  67.4123760   3.2738970  62.3441040  66.4603710   3.1533900
  65.7756720  68.3196560  18.5618490  66.5166190  68.6572320  18.0585950
  65.0129400  68.4888620  18.0088260  53.6118510  63.3249830  19.3658020
  53.6523850  63.0263700  20.2743250  54.4664010  63.7257440  19.2065540
  57.3896900  65.9245380   4.5261530  57.8113320  65.7585250   5.3692920
  57.5147740  65.1145610   4.0316670  55.5524320  61.9041930  17.3332510
  55.0220780  61.4132880  16.7055850  56.2212390  62.3326130  16.7990440
  64.4502380  66.3711390  17.0973700  64.8643400  66.5256470  17.9464120
  63.5153380  66.4966610  17.2599480  64.9224550  63.7107550  19.1012850
  65.5045320  62.9559870  19.0133330  65.0986320  64.2414990  18.3244330
  56.0396620  58.8704300  17.4129800  55.9453490  58.2525050  16.6880670
  55.4594010  59.5970590  17.1859710  58.8058060  57.4277540  14.4457190
  58.3575360  57.4501800  13.6002740  58.1723260  57.0296560  15.0427490
  59.2117610  66.3231870  15.0669630  59.6305720  67.1664600  14.8945870
  58.2926240  66.4603910  14.8376410  61.5481510  64.0548050  16.4507470
  61.6677720  63.4589190  17.1902310  62.4075510  64.0917740  16.0308770
  63.8869410  64.6085240  15.0269980  63.3604630  65.1327860  14.4235120
  64.2300750  65.2412630  15.6579710  57.0625030  72.6284880  16.1827360
  56.5246120  73.3530940  15.8636060  57.3158990  72.1515220  15.3924700
  58.3150280  60.5969400  17.7083290  58.9049970  60.2885250  18.3961110
  57.4970520  60.1249150  17.8643190  63.1343710  60.2135210  17.9416310
  62.4459230  59.5516750  17.8766300  63.8549730  59.7673480  18.3864770
  63.7644110  56.8086840   4.0006570  64.0446400  55.9654740   4.3565990
  62.9909840  57.0409950   4.5145320  59.9187240  73.8636090  16.4414010
  59.8445940  74.7671230  16.7486380  59.0166080  73.5447990  16.4136080
  58.3023530  58.0413850   2.4453770  57.9545530  57.3637840   1.8656220
  58.5036300  57.5803360   3.2597160  60.4672570  73.0294600   4.0640370
  61.3623360  73.3679570   4.0859130  60.4990200  72.3074010   3.4364650
  54.1068730  68.4021650   2.2927370  54.5443600  68.9451320   2.9484950
  54.5916460  67.5768600   2.3023710  51.3214530  71.1910680   9.7447630
  51.6517540  70.3231740   9.5126270  51.7505530  71.3969200  10.5752590
  55.9176450  69.5219690   7.4049600  55.6171990  69.3984660   8.3053510
  55.8113940  68.6628280   6.9965330  51.8104740  72.0581270  12.4829260
  51.3735730  72.2382070  13.3153410  52.3782420  72.8155890  12.3410980
  67.4466920  71.5598270  16.7706570  66.8468910  71.6190830  16.0270490
  67.5760820  70.6203250  16.9003420  68.6868370  69.3016090   2.1076280
  67.8561330  69.3692740   2.5783510  68.8640200  70.1920210   1.8043140
  68.1424830  66.0463570   4.6110480  68.9043740  66.6160220   4.7170170
  68.1579200  65.4790770   5.3818790  51.6429170  64.5701500   8.8418140
  50.9878010  64.3013140   8.1977840  52.4807120  64.4605980   8.3920120
  69.1484800  66.9013670   9.4552410  69.5193630  66.1180990   9.0488380
  69.7886730  67.5902770   9.2769710  66.1318560  68.2850250  14.8682730
  65.3178400  68.7147410  15.1308520  66.5392760  68.8968660  14.2551780
  68.1944000  66.3397940   1.7683000  68.4692840  67.2476820   1.6402220
  68.0054740  66.2760470   2.7044990  64.5919610  59.3642790   3.0636630
  65.0104490  59.1773770   2.2233290  64.2855670  58.5121840   3.3739560
  68.0909340  64.2766930   6.7612430  67.7152940  63.5094860   6.3293720
  67.3612460  64.6589630   7.2487360  52.6805100  64.9554070  13.3821480
  53.0478140  64.8681470  14.2617500  52.1115920  64.1920620  13.2828340
  67.4808960  63.4238450  16.3951950  67.2495050  63.1951200  15.4949900
  67.7413510  64.3438000  16.3496840  52.2321100  61.8663160  17.2879900
  51.3377150  61.8329920  17.6273610  52.7718650  62.0649950  18.0531150
  65.9197030  58.6494880  19.1731650  66.7967210  58.6578280  19.5565650
  65.9317870  57.9125720  18.5624000  50.8567250  61.7800430   4.7843470
  49.9531330  62.0430630   4.6095130  51.3407870  62.0511600   4.0043430
  67.3660300  62.5024420  10.0619670  67.8897780  62.0087070   9.4309840
  67.9519720  62.6374780  10.8067240  67.5450020  62.5864290  13.5839220
  66.5952730  62.5527830  13.6984210  67.7263030  63.4964400  13.3488990
  53.3994460  60.8365970   2.6937850  54.1086160  60.4149190   2.2085130
  52.6834400  60.9041200   2.0621200  66.8560270  61.7597770   6.0012080
  67.3519390  61.5268640   6.7860960  66.6576340  60.9209610   5.5849720
  52.7360810  56.1411490  11.6363120  53.3837000  55.5908870  11.1958280
  53.1562650  56.3954640  12.4578930  68.2847430  60.3958720   8.5349760
  68.1746710  60.2414760   9.4732030  69.0455020  59.8679660   8.2925170
  66.6313150  56.3352850  14.9932760  67.2685370  56.9486990  15.3591950
  66.7788040  56.3713510  14.0481990  69.1737700  58.2266640   1.7755900
  70.0987010  58.0947820   1.5674190  69.1513490  58.3059460   2.7292350
  69.2476190  58.9977300   4.4012610  68.4527690  58.9322420   4.9305520
  69.4519470  59.9327940   4.3897960  66.1894610  73.0368850   8.3951000
  66.7853680  72.7153420   7.7185420  66.4472760  72.5640670   9.1864270
  52.4892810  56.2967160  14.3788440  52.1407630  56.7530980  15.1446620
  52.1580510  55.4024290  14.4610870  54.0957180  69.4686760  18.5441630
  54.0526810  69.0979670  19.4256090  54.2268190  70.4064330  18.6843450
  57.7963210  71.0246350  14.1451350  57.5554570  71.2920910  13.2581870
  58.7365850  71.1952080  14.2002210  60.0017630  57.4879040  17.9007860
  59.9406520  58.0800870  18.6503270  60.9418010  57.3805000  17.7558120
  62.6392190  57.1449100  17.5400150  63.2532600  57.4628390  16.8781230
  63.1841750  56.6597690  18.1596010  69.0567370  73.0440730  14.9461990
  68.5625650  73.4409600  14.2289120  68.4480660  72.4189940  15.3399270
  53.1613450  55.8243360  17.6539210  53.7096440  55.6431410  16.8905320
  53.2268760  55.0337470  18.1895520  53.9345210  72.4149010  15.6639410
  53.3405530  72.2833710  16.4029450  53.9269050  71.5787150  15.1981510
  63.3800230  55.7081240  13.8669440  62.5060070  56.0416350  13.6642370
  63.2710980  55.2354420  14.6921310  64.2872210  57.9152110  15.2511160
  63.9585570  57.1003870  14.8712890  65.2354510  57.8721920  15.1276850
  66.7406820  73.6864150  12.2248730  66.2809790  74.4379960  11.8506750
  66.1119280  72.9670620  12.1663530  53.5657440  69.7807390  14.6147450
  52.8391500  69.1612680  14.5473400  53.6266590  70.1748000  13.7445530
  57.1702540  71.9952390  11.3996860  57.6867560  71.3839750  10.8745120
  57.8199920  72.4981170  11.8907870  59.9098040  72.8860880  12.2265840
  60.1975850  72.6315180  11.3498850  60.4221260  72.3338240  12.8171410
  61.1275050  56.6251080  12.8062350  60.3446840  57.0996580  13.0859110
  60.8337980  55.7205910  12.6975530  65.6796120  57.3274180  10.8511440
  66.1204210  57.2719280  10.0033040  65.4103710  58.2432190  10.9221620
  67.5434690  56.9589420   8.8620260  67.4823090  56.0150640   8.7151280
  68.3226720  57.0669510   9.4073720  51.8487440  73.0981780   7.8244210
  51.6809480  72.4652460   8.5226100  50.9821950  73.3041180   7.4738400
  52.4715460  56.9298560   5.3276070  53.2294820  57.0427440   4.7540100
  52.0092630  57.7667760   5.2819500  59.0129270  59.0437830   8.3178380
  58.2003780  58.6694720   7.9774260  59.5170910  58.2882910   8.6199570
  63.5154250  55.7080280   9.5561450  64.1183620  56.2800490  10.0309970
  62.7747240  56.2719720   9.3335350  66.6588850  56.1101840   4.8301730
  66.8539480  57.0085290   5.0969160  65.8718720  55.8788920   5.3234680
  53.4550140  71.7915010   5.2694350  52.9297760  72.1723040   4.5656310
  53.3794720  72.4165780   5.9904060  54.8440610  57.4562610   3.8678040
  55.3733370  56.6692410   3.7385990  55.4768930  58.1353800   4.1013570
  57.0378450  57.1937750   6.9223430  56.4081190  56.4925060   7.0893560
  56.4983590  57.9541880   6.7056590  59.9770400  73.8076980  19.5934040
  60.9037710  73.5721250  19.6370000  59.9620830  74.6348980  19.1120070
  68.2115460  73.3502550   6.5908290  68.3867650  72.6640290   5.9469210
  67.5137030  73.8749600   6.1984960  57.1634010  56.4721730  19.3575920
  56.8818280  56.9755330  18.5936740  57.5453710  55.6743480  18.9918050
  56.0543110  73.7397390   4.1443600  56.7861930  73.4556670   3.5967490
  56.3136780  73.5010670   5.0342980  55.2157900  69.8562120   4.1489930
  54.5866780  70.3247220   4.6975760  55.3305730  69.0111340   4.5836120
  63.7649470  55.8875310  19.9356390  63.6514920  56.2069920  20.8307910
  64.5819210  56.2887820  19.6393670  66.5447960  73.0346840  19.4175080
  67.3373280  72.5396070  19.2101040  66.8381110  73.7136980  20.0250690
  62.6707620  45.1324290  65.3965090  62.5901670  44.2178900  65.1256800
  62.2572040  45.6291360  64.6904800  60.8025660  46.9103310  67.2774360
  60.0267760  46.4303750  67.5672930  61.4538590  46.2308960  67.1030520
  54.8191490  47.2223120  68.1550120  53.9876370  46.9671830  68.5546630
  55.4272470  47.2933890  68.8908040  54.7992750  51.2563210  68.3508140
  55.1020790  50.3660950  68.1718360  55.5436340  51.8133430  68.1230390
  53.2283440  42.1825010  61.9392510  52.3400140  42.5240980  61.8372390
  53.5124630  41.9825330  61.0473340  51.1916450  44.7830660  67.8232210
  51.7632560  44.0152860  67.8235850  51.1917990  45.0819420  66.9138820
  61.0496400  53.6021510  65.6777480  60.4307840  54.0579010  65.1071920
  61.9048180  53.7572970  65.2767180  60.2434650  49.5860500  67.2844520
  60.1742930  48.6450440  67.1233650  61.0054510  49.6761910  67.8567090
  52.4341320  40.1915020  69.6101140  52.2544160  39.2940770  69.8903900
  52.0321400  40.7386890  70.2848090  61.2739820  42.3930880  67.5113450
  61.6504640  41.5202760  67.3987120  61.1759330  42.7289580  66.6203890
  55.4044830  40.7656510  62.9730890  55.5111580  41.6660240  63.2799650
  54.4937190  40.7174480  62.6825540  65.0563940  39.8881320  64.4441790
  65.8773560  39.3977890  64.4867270  65.0898020  40.4778980  65.1973630
  53.0527990  42.6875520  68.2183480  53.7338100  42.9513890  68.8370880
  52.7376040  41.8476390  68.5521490  57.2452560  43.7342880  67.3056070
  57.7530780  44.2323850  67.9461090  57.7765800  42.9578080  67.1295430
  69.3463490  41.9048070  71.0085420  68.6415660  42.2929780  70.4900530
  69.6121410  42.5998360  71.6106350  55.5288660  38.3741440  71.5719490
  55.5307100  38.8913830  70.7665390  54.6992970  37.8971620  71.5489420
  61.9159750  48.4860750  63.0709390  61.2977020  48.9510200  62.5072110
  62.4283000  49.1788230  63.4878900  56.7791510  48.0136620  69.7492990
  56.4460890  48.6405540  70.3914060  56.9558190  48.5398500  68.9694660
  65.2925420  41.8281700  67.2169330  64.5880990  42.1166590  67.7972440
  65.6537580  42.6381810  66.8568890  55.2103990  40.0851400  69.5789940
  55.5520800  40.9293450  69.2843810  54.2719800  40.2335140  69.6955280
  55.9910610  49.9817420  71.5642170  56.6084610  50.6568500  71.2826620
  55.1303730  50.3905400  71.4729670  51.2842950  49.1717280  60.4449020
  50.9070930  49.6604380  59.7133920  51.5416020  49.8442560  61.0755550
  66.9088200  51.4456830  69.4796810  66.2251720  52.1155940  69.4713480
  67.4482490  51.6437480  68.7141670  68.3612340  41.2736490  67.6078540
  67.4137250  41.3075470  67.7393970  68.6862330  42.0875440  67.9927900
  58.8931880  37.5733670  65.9034530  59.2006860  37.0180560  65.1870030
  57.9632580  37.7078130  65.7207520  64.4446940  53.2900960  68.1941990
  64.4574100  52.8863250  67.3264250  63.8922160  54.0648250  68.0903420
  63.8432380  48.1930800  69.5224600  64.2601170  47.9790910  68.6878060
  64.5672200  48.4503590  70.0933220  61.2812640  45.6382500  62.6394650
  60.3541920  45.5719880  62.8683120  61.4337460  46.5762630  62.5249890
  61.2681720  41.9099500  59.6361810  60.3285390  42.0713460  59.7214270
  61.5864980  42.6285180  59.0897800  67.7894480  46.5918020  69.6140840
  66.9613110  46.6611110  69.1390970  68.3844960  47.1772330  69.1456670
  64.7536490  43.3787340  70.5595710  64.3407670  44.2041050  70.8135700
  64.0212440  42.7932380  70.3672070  56.8869280  46.1647240  65.4214380
  56.4826280  45.4524490  64.9260280  56.9732400  45.8200480  66.3102420
  57.3550980  49.8514800  67.5853590  57.0579270  49.2460270  66.9061370
  58.3050800  49.8892110  67.4742950  55.5997900  42.9390450  69.2013420
  56.1512490  43.0485790  68.4266670  56.1141410  43.3128050  69.9168650
  65.4436590  53.4246670  71.2476690  64.9667150  54.2318860  71.0549300
  64.7598380  52.7725000  71.4002900  56.4469410  49.5896490  74.2361390
  55.5497940  49.8136460  74.4834790  56.4722280  49.7131430  73.2872790
  63.4874630  46.4389610  60.1502650  63.9267910  45.6012040  60.0040470
  64.2003050  47.0719010  60.2366790  55.2740630  46.4609810  72.8118760
  55.1348400  47.3332610  73.1806160  54.3921990  46.1182620  72.6666700
  61.5970010  51.3785680  64.1183890  62.0365920  52.1210010  63.7039280
  61.5356900  51.6212250  65.0422850  57.0720980  52.4031510  75.0203910
  57.0436410  52.8074460  74.1532340  56.9085950  51.4741870  74.8575510
  67.0691770  37.6932420  58.4643690  66.7564430  37.7859250  59.3642760
  67.8304240  38.2713450  58.4141120  53.5873910  45.0592220  62.9221030
  53.4671510  45.7854310  62.3102300  53.2774800  44.2895130  62.4448940
  51.2259280  48.2307360  68.7289670  51.3039700  48.3656130  67.7845390
  51.8400960  47.5223250  68.9217790  52.4706910  49.9307550  65.1395850
  52.0634990  50.0722140  64.2849450  53.3619920  49.6467710  64.9367060
  68.4269050  50.3771460  73.4768090  68.5532110  50.1383340  72.5585270
  68.4690430  49.5456000  73.9490170  62.2885790  54.0799460  72.0462900
  62.8030460  53.9907470  72.8485330  61.4454870  54.4259160  72.3390810
  56.7428570  54.1453330  63.2518520  56.5671050  53.2288870  63.0386320
  55.8884310  54.5040620  63.4916320  63.5316250  53.5005070  64.1093390
  63.9873200  52.7194450  64.4232010  63.8708770  54.2111890  64.6534570
  68.2793060  42.4303920  74.4417830  67.6637330  42.9383590  73.9133290
  67.9589480  41.5302250  74.3843770  51.2818800  49.2721530  71.2684130
  51.4449840  48.8026890  70.4503500  51.7471250  48.7645090  71.9332970
  56.0537570  38.4027290  66.3044700  55.6105720  39.1836830  65.9729220
  56.6122560  38.7257180  67.0115640  60.3407380  41.2695810  71.9080020
  59.8786750  41.4778830  72.7199960  59.9385490  40.4555160  71.6050690
  65.3411890  42.4904760  73.0376680  64.4905480  42.1910510  73.3585750
  65.1813680  42.7346770  72.1260500  62.4361600  43.9906510  75.1375470
  62.7615010  43.1570260  74.7977700  63.2241930  44.5135030  75.2853800
  59.1696390  38.0237990  61.1850530  58.5450570  38.0197860  61.9103840
  59.0826510  37.1568950  60.7886500  58.0913470  38.9474620  68.1634300
  58.3885800  39.8537450  68.0826320  58.6399030  38.4593400  67.5493870
  55.8451790  43.5260860  64.0325950  55.6192710  43.3098030  64.9372570
  55.0644320  43.9589320  63.6871920  63.0749550  43.5324230  62.6316600
  62.4758440  44.2560030  62.4480220  63.6229160  43.4701010  61.8493050
  58.2851000  44.4246440  74.6986220  58.1894600  43.4841170  74.5486620
  59.1282980  44.6461510  74.3034290  61.6814420  42.1687770  64.6619880
  62.0743990  42.4859970  63.8488570  62.0431270  41.2899650  64.7764400
  53.4161540  40.8360110  72.8520000  53.0224930  41.6835320  73.0592780
  52.7279940  40.1986480  73.0428640  50.7178590  38.7588570  66.8850080
  50.4291640  39.3291430  67.5975060  51.4624350  38.2793020  67.2481310
  50.9048820  42.7008690  58.0952800  50.8223490  43.6439450  58.2367790
  50.5531880  42.5583600  57.2165150  62.2669560  44.7593520  68.7570660
  61.5350680  45.2680330  69.1060760  61.8693900  43.9423500  68.4559440
  58.7046950  41.4347720  67.1623150  58.7083010  40.9937670  66.3127690
  59.5998070  41.7565050  67.2694970  54.5549330  41.3174210  66.1217360
  54.2149380  41.7949440  66.8784410  53.7926650  40.8639330  65.7618460
  58.7667100  42.4359800  60.1529910  58.8879920  42.3946280  61.1015730
  58.3815610  43.2983950  59.9976640  62.7295470  40.2127200  68.1693600
  62.7468210  40.6635850  69.0135450  62.4811050  39.3132840  68.3827040
  57.7788600  44.7460940  59.5513210  57.2105500  44.2979190  58.9249120
  58.4877600  45.1053720  59.0178360  66.1566220  37.6259380  74.0079980
  66.4811990  36.8949040  74.5337960  66.1922730  37.3073020  73.1060970
  52.8557780  48.6472960  73.4279940  52.4712570  48.0066630  74.0262900
  53.1669970  49.3509080  73.9974670  59.0054920  45.4949500  68.9088560
  59.3725050  45.0208070  69.6549900  58.8159980  46.3691070  69.2496900
  51.8695410  40.2393190  65.0382030  51.5842330  39.8748860  65.8760650
  51.8074270  39.5073650  64.4245170  56.7954290  44.5358140  71.2272770
  56.4911360  45.4150120  71.4523130  57.7500750  44.5957930  71.2630210
  55.3236080  48.7419130  61.8239620  54.5498340  48.2016750  61.6638340
  56.0530710  48.2225740  61.4857380  66.0824060  47.7384490  67.6166010
  66.8023180  48.2339780  67.2262120  65.8805880  47.0602380  66.9719880
  61.5434000  39.1322450  61.7595400  60.7298610  38.6335620  61.6840710
  61.3495950  39.9720700  61.3431750  61.4642860  47.8093550  73.5035010
  61.3980170  46.8889220  73.2492600  60.8348000  47.9068990  74.2179650
  64.2582390  43.5042100  60.0557560  65.1462010  43.8159330  59.8808900
  64.2287480  42.6314350  59.6638140  55.3673480  48.4099510  65.4618430
  55.8852150  47.6067770  65.4075320  54.9157500  48.3478650  66.3035260
  52.8518020  45.3760880  72.3744130  52.4932960  46.0414730  72.9617470
  52.5572580  44.5444430  72.7456750  56.0531140  45.8345120  75.2583680
  55.7531280  45.9802300  74.3611500  56.8242380  45.2750410  75.1657070
  61.3959590  50.6314120  73.2538810  61.4104130  49.6995080  73.0357720
  60.6884690  50.7173880  73.8928580  66.5296660  44.8153940  59.5237420
  66.4460380  45.2468160  58.6733860  67.2490850  45.2752290  59.9564240
  67.6070800  47.2721460  72.6007390  66.8818990  47.8650240  72.4036780
  68.1346260  47.2645000  71.8020760  63.1370390  48.9981630  66.0991240
  63.4894210  48.4009760  65.4392610  62.2532720  48.6725860  66.2699490
  59.2233670  49.7579320  63.5061650  59.9104800  50.3048530  63.8869240
  58.4366090  50.3020050  63.5411260  51.3626070  45.3752140  58.9978730
  52.2320920  45.6576940  59.2814650  50.8716390  46.1888010  58.8827540
  58.5260880  46.7625350  63.1187010  58.9823660  47.5730600  63.3447200
  58.1749090  46.4448490  63.9505500  60.8293490  52.2731690  70.3479310
  61.4735710  52.4791070  71.0252730  61.1922930  51.5120090  69.8950160
  54.4272660  37.1063000  63.5909530  54.2987290  37.0980900  64.5394450
  53.6034680  37.4446090  63.2400540  62.1025570  50.2764040  69.0656760
  62.7447800  49.5757200  69.1788930  62.6274920  51.0562480  68.8853650
  63.8763190  51.0758940  72.2692820  64.2119430  51.6625630  72.9470740
  62.9563530  50.9451650  72.4990610  51.7297320  54.5879520  59.5640360
  52.0894960  55.1868860  58.9097630  51.5889660  55.1339410  60.3375390
  51.4266590  38.8654120  73.0516230  50.7125110  39.0651040  73.6568840
  51.8461630  38.0893690  73.4231030  51.7139180  52.8534380  74.0382760
  51.8230300  51.9129120  73.8978150  51.0619740  53.1189130  73.3896490
  59.7051770  51.1250270  75.4380880  59.3848640  50.4059510  75.9826570
  59.0310130  51.8005340  75.5116940  57.7465940  51.9710720  60.3814030
  57.7376040  52.7040410  59.7658540  56.8264300  51.7242300  60.4740990
  53.3472580  47.1925610  61.1260790  52.7400530  47.9324510  61.1356090
  53.8221930  47.2824970  60.2998990  62.9205370  41.3576430  70.8017680
  63.2886190  40.5371640  71.1297250  62.0603570  41.4178320  71.2173330
  66.2867400  40.3133370  61.6105240  65.6580560  40.4179040  60.8963470
  65.7919320  40.5330150  62.3999120  58.2551430  42.5919320  63.0263120
  57.5467580  43.0605660  63.4676730  58.5395910  41.9341330  63.6608310
  59.8807360  44.0116020  71.0255650  60.3792610  44.4861840  71.6907500
  60.0230310  43.0879540  71.2325680  62.2866860  39.3169980  64.4658910
  62.1634640  39.3356110  63.5168420  63.2351420  39.3648920  64.5857310
  59.3743650  54.5525280  63.7386890  59.6285150  54.5146670  62.8166260
  58.4256130  54.4258610  63.7315140  56.4586450  40.9004400  60.4013830
  57.3076980  41.3374550  60.3354020  56.0917720  41.2124660  61.2285890
  67.0874220  40.2283980  71.8684040  66.5847820  40.9689380  72.2077850
  67.9030880  40.6167980  71.5520830  65.3796230  45.4717160  65.3145400
  64.4386370  45.4867390  65.4893090  65.6940300  44.6853120  65.7605700
  55.3577870  47.1536760  58.8749360  56.1241140  47.0418120  59.4374790
  55.4352560  46.4574730  58.2226130  54.0524630  44.5861830  59.5582250
  54.1328220  43.6389340  59.6699650  54.9444380  44.9168710  59.6642910
  67.3821810  52.6426010  66.9899660  67.5069230  53.4657180  67.4623470
  68.2487370  52.4316740  66.6423810  54.8539340  54.7357220  66.6616790
  55.5901820  54.1872680  66.9325360  55.2380260  55.6013230  66.5222780
  51.7384820  50.8030790  62.5358300  50.8124600  51.0451930  62.5263710
  52.2041250  51.6305050  62.4143050  64.1262620  53.7563450  74.4087190
  65.0784370  53.6721470  74.3587430  63.9790840  54.4205160  75.0820980
  51.5795430  46.4076750  74.7938420  52.0834450  45.8284030  75.3654650
  50.8402850  46.6916980  75.3314790  58.4819050  49.1290940  58.3484710
  58.3769690  48.5143290  59.0746090  58.3143270  48.6056830  57.5647720
  58.6333370  47.8147740  74.3273940  57.8679040  48.3832740  74.2428610
  58.8149330  47.5223950  73.4342170  61.7221780  48.1910970  58.9526700
  61.1731880  48.6380270  59.5969440  62.3441040  47.6860220  59.4764370
  65.7756720  49.5453070  74.8848960  66.5166190  49.8828830  74.3816420
  65.0129400  49.7145130  74.3318730  57.3896900  47.1501890  60.8492000
  57.8113320  46.9841760  61.6923390  57.5147740  46.3402120  60.3547140
  55.5524320  43.1298440  73.6562980  55.0220780  42.6389390  73.0286320
  56.2212390  43.5582640  73.1220910  59.9024540  46.1739500  58.0969100
  60.4230200  45.4588520  57.7310250  60.5492940  46.8125370  58.3969610
  64.4502380  47.5967900  73.4204170  64.8643400  47.7512980  74.2694590
  63.5153380  47.7223120  73.5829950  64.9224550  44.9364060  75.4243320
  65.5045320  44.1816380  75.3363800  65.0986320  45.4671500  74.6474800
  56.0396620  40.0960810  73.7360270  55.9453490  39.4781560  73.0111140
  55.4594010  40.8227100  73.5090180  58.8058060  38.6534050  70.7687660
  58.3575360  38.6758310  69.9233210  58.1723260  38.2553070  71.3657960
  59.2117610  47.5488380  71.3900100  59.6305720  48.3921110  71.2176340
  58.2926240  47.6860420  71.1606880  61.5481510  45.2804560  72.7737940
  61.6677720  44.6845700  73.5132780  62.4075510  45.3174250  72.3539240
  63.8869410  45.8341750  71.3500450  63.3604630  46.3584370  70.7465590
  64.2300750  46.4669140  71.9810180  56.2855800  43.2235120  57.7950160
  56.0844860  42.3602480  58.1563500  56.1147850  43.1368480  56.8571760
  57.0625030  53.8541390  72.5057830  56.5246120  54.5787450  72.1866530
  57.3158990  53.3771730  71.7155170  58.3150280  41.8225910  74.0313760
  58.9049970  41.5141760  74.7191580  57.4970520  41.3505660  74.1873660
  63.1343710  41.4391720  74.2646780  62.4459230  40.7773260  74.1996770
  63.8549730  40.9929990  74.7095240  63.7644110  38.0343350  60.3237040
  64.0446400  37.1911250  60.6796460  62.9909840  38.2666460  60.8375790
  55.0838600  40.3235740  57.7828040  55.3864500  40.3303170  56.8747190
  55.8233190  39.9733600  58.2795700  59.9187240  55.0892600  72.7644480
  59.8445940  55.9927740  73.0716850  59.0166080  54.7704500  72.7366550
  58.3023530  39.2670360  58.7684240  57.9545530  38.5894350  58.1886690
  58.5036300  38.8059870  59.5827630  54.1068730  49.6278160  58.6157840
  54.5443600  50.1707830  59.2715420  54.5916460  48.8025110  58.6254180
  51.3214530  52.4167190  66.0678100  51.6517540  51.5488250  65.8356740
  51.7505530  52.6225710  66.8983060  55.9176450  50.7476200  63.7280070
  55.6171990  50.6241170  64.6283980  55.8113940  49.8884790  63.3195800
  51.8104740  53.2837780  68.8059730  51.3735730  53.4638580  69.6383880
  52.3782420  54.0412400  68.6641450  67.4466920  52.7854780  73.0937040
  66.8468910  52.8447340  72.3500960  67.5760820  51.8459760  73.2233890
  51.6429170  45.7958010  65.1648610  50.9878010  45.5269650  64.5208310
  52.4807120  45.6862490  64.7150590  69.1484800  48.1270180  65.7782880
  69.5193630  47.3437500  65.3718850  69.7886730  48.8159280  65.6000180
  66.1318560  49.5106760  71.1913200  65.3178400  49.9403920  71.4538990
  66.5392760  50.1225170  70.5782250  68.1944000  47.5654450  58.0913470
  68.4692840  48.4733330  57.9632690  68.0054740  47.5016980  59.0275460
  64.5919610  40.5899300  59.3867100  65.0104490  40.4030280  58.5463760
  64.2855670  39.7378350  59.6970030  68.0909340  45.5023440  63.0842900
  67.7152940  44.7351370  62.6524190  67.3612460  45.8846140  63.5717830
  52.6805100  46.1810580  69.7051950  53.0478140  46.0937980  70.5847970
  52.1115920  45.4177130  69.6058810  67.4808960  44.6494960  72.7182420
  67.2495050  44.4207710  71.8180370  67.7413510  45.5694510  72.6727310
  52.2321100  43.0919670  73.6110370  51.3377150  43.0586430  73.9504080
  52.7718650  43.2906460  74.3761620  65.9197030  39.8751390  75.4962120
  66.7967210  39.8834790  75.8796120  65.9317870  39.1382230  74.8854470
  50.8567250  43.0056940  61.1073940  49.9531330  43.2687140  60.9325600
  51.3407870  43.2768110  60.3273900  67.3660300  43.7280930  66.3850140
  67.8897780  43.2343580  65.7540310  67.9519720  43.8631290  67.1297710
  67.5450020  43.8120800  69.9069690  66.5952730  43.7784340  70.0214680
  67.7263030  44.7220910  69.6719460  53.3994460  42.0622480  59.0168320
  54.1086160  41.6405700  58.5315600  52.6834400  42.1297710  58.3851670
  53.0468620  38.1161810  58.0570970  53.7696750  38.6570750  58.3752190
  53.3193140  37.8425230  57.1812510  66.8560270  42.9854280  62.3242550
  67.3519390  42.7525150  63.1091430  66.6576340  42.1466120  61.9080190
  52.7360810  37.3668000  67.9593590  53.3837000  36.8165380  67.5188750
  53.1562650  37.6211150  68.7809400  68.2847430  41.6215230  64.8580230
  68.1746710  41.4671270  65.7962500  69.0455020  41.0936170  64.6155640
  66.6313150  37.5609360  71.3163230  67.2685370  38.1743500  71.6822420
  66.7788040  37.5970020  70.3712460  69.1737700  39.4523150  58.0986370
  70.0987010  39.3204330  57.8904660  69.1513490  39.5315970  59.0522820
  69.2476190  40.2233810  60.7243080  68.4527690  40.1578930  61.2535990
  69.4519470  41.1584450  60.7128430  52.4892810  37.5223670  70.7018910
  52.1407630  37.9787490  71.4677090  52.1580510  36.6280800  70.7841340
  54.0957180  50.6943270  74.8672100  54.0526810  50.3236180  75.7486560
  54.2268190  51.6320840  75.0073920  57.7963210  52.2502860  70.4681820
  57.5554570  52.5177420  69.5812340  58.7365850  52.4208590  70.5232680
  60.0017630  38.7135550  74.2238330  59.9406520  39.3057380  74.9733740
  60.9418010  38.6061510  74.0788590  62.6392190  38.3705610  73.8630620
  63.2532600  38.6884900  73.2011700  63.1841750  37.8854200  74.4826480
  69.0567370  54.2697240  71.2692460  68.5625650  54.6666110  70.5519590
  68.4480660  53.6446450  71.6629740  53.1613450  37.0499870  73.9769680
  53.7096440  36.8687920  73.2135790  53.2268760  36.2593980  74.5125990
  53.9345210  53.6405520  71.9869880  53.3405530  53.5090220  72.7259920
  53.9269050  52.8043660  71.5211980  63.3800230  36.9337750  70.1899910
  62.5060070  37.2672860  69.9872840  63.2710980  36.4610930  71.0151780
  64.2872210  39.1408620  71.5741630  63.9585570  38.3260380  71.1943360
  65.2354510  39.0978430  71.4507320  66.7406820  54.9120660  68.5479200
  66.2809790  55.6636470  68.1737220  66.1119280  54.1927130  68.4894000
  53.5657440  51.0063900  70.9377920  52.8391500  50.3869190  70.8703870
  53.6266590  51.4004510  70.0676000  57.1702540  53.2208900  67.7227330
  57.6867560  52.6096260  67.1975590  57.8199920  53.7237680  68.2138340
  59.9098040  54.1117390  68.5496310  60.1975850  53.8571690  67.6729320
  60.4221260  53.5594750  69.1401880  61.1275050  37.8507590  69.1292820
  60.3446840  38.3253090  69.4089580  60.8337980  36.9462420  69.0206000
  65.6796120  38.5530690  67.1741910  66.1204210  38.4975790  66.3263510
  65.4103710  39.4688700  67.2452090  67.5434690  38.1845930  65.1850730
  67.4823090  37.2407150  65.0381750  68.3226720  38.2926020  65.7304190
  51.8487440  54.3238290  64.1474680  51.6809480  53.6908970  64.8456570
  50.9821950  54.5297690  63.7968870  52.4715460  38.1555070  61.6506540
  53.2294820  38.2683950  61.0770570  52.0092630  38.9924270  61.6049970
  59.0129270  40.2694340  64.6408850  58.2003780  39.8951230  64.3004730
  59.5170910  39.5139420  64.9430040  63.5154250  36.9336790  65.8791920
  64.1183620  37.5057000  66.3540440  62.7747240  37.4976230  65.6565820
  66.6588850  37.3358350  61.1532200  66.8539480  38.2341800  61.4199630
  65.8718720  37.1045430  61.6465150  53.4550140  53.0171520  61.5924820
  52.9297760  53.3979550  60.8886780  53.3794720  53.6422290  62.3134530
  54.8440610  38.6819120  60.1908510  55.3733370  37.8948920  60.0616460
  55.4768930  39.3610310  60.4244040  57.0378450  38.4194260  63.2453900
  56.4081190  37.7181570  63.4124030  56.4983590  39.1798390  63.0287060
  59.9770400  55.0333490  75.9164510  60.9037710  54.7977760  75.9600470
  59.9620830  55.8605490  75.4350540  57.1634010  37.6978240  75.6806390
  56.8818280  38.2011840  74.9167210  57.5453710  36.8999990  75.3148520
  55.2157900  51.0818630  60.4720400  54.5866780  51.5503730  61.0206230
  55.3305730  50.2367850  60.9066590  52.4341320  40.1915020  50.8357650
  52.2544160  39.2940770  51.1160410  52.0321400  40.7386890  51.5104600
  55.4044830  40.7656510  44.1987400  55.5111580  41.6660240  44.5056160
  54.4937190  40.7174480  43.9082050  53.0527990  42.6875520  49.4439990
  53.7338100  42.9513890  50.0627390  52.7376040  41.8476390  49.7778000
  55.5288660  38.3741440  52.7976000  55.5307100  38.8913830  51.9921900
  54.6992970  37.8971620  52.7745930  56.7791510  48.0136620  50.9749500
  56.4460890  48.6405540  51.6170570  56.9558190  48.5398500  50.1951170
  55.2103990  40.0851400  50.8046450  55.5520800  40.9293450  50.5100320
  54.2719800  40.2335140  50.9211790  55.9910610  49.9817420  52.7898680
  56.6084610  50.6568500  52.5083130  55.1303730  50.3905400  52.6986180
  58.8931880  37.5733670  47.1291040  59.2006860  37.0180560  46.4126540
  57.9632580  37.7078130  46.9464030  55.5997900  42.9390450  50.4269930
  56.1512490  43.0485790  49.6523180  56.1141410  43.3128050  51.1425160
  56.4469410  49.5896490  55.4617900  55.5497940  49.8136460  55.7091300
  56.4722280  49.7131430  54.5129300  55.2740630  46.4609810  54.0375270
  55.1348400  47.3332610  54.4062670  54.3921990  46.1182620  53.8923210
  68.2793060  42.4303920  55.6674340  67.6637330  42.9383590  55.1389800
  67.9589480  41.5302250  55.6100280  56.0537570  38.4027290  47.5301210
  55.6105720  39.1836830  47.1985730  56.6122560  38.7257180  48.2372150
  60.3407380  41.2695810  53.1336530  59.8786750  41.4778830  53.9456470
  59.9385490  40.4555160  52.8307200  65.3411890  42.4904760  54.2633190
  64.4905480  42.1910510  54.5842260  65.1813680  42.7346770  53.3517010
  62.4361600  43.9906510  56.3631980  62.7615010  43.1570260  56.0234210
  63.2241930  44.5135030  56.5110310  59.1696390  38.0237990  42.4107040
  58.5450570  38.0197860  43.1360350  59.0826510  37.1568950  42.0143010
  58.0913470  38.9474620  49.3890810  58.3885800  39.8537450  49.3082830
  58.6399030  38.4593400  48.7750380  55.8451790  43.5260860  45.2582460
  55.6192710  43.3098030  46.1629080  55.0644320  43.9589320  44.9128430
  58.2851000  44.4246440  55.9242730  58.1894600  43.4841170  55.7743130
  59.1282980  44.6461510  55.5290800  53.4161540  40.8360110  54.0776510
  53.0224930  41.6835320  54.2849290  52.7279940  40.1986480  54.2685150
  59.9906590  40.9195080  57.1473250  59.3004910  40.7267280  57.7819340
  60.7338890  41.2029720  57.6797550  50.7178590  38.7588570  48.1106590
  50.4291640  39.3291430  48.8231570  51.4624350  38.2793020  48.4737820
  54.5549330  41.3174210  47.3473870  54.2149380  41.7949440  48.1040920
  53.7926650  40.8639330  46.9874970  66.1566220  37.6259380  55.2336490
  66.4811990  36.8949040  55.7594470  66.1922730  37.3073020  54.3317480
  52.8557780  48.6472960  54.6536450  52.4712570  48.0066630  55.2519410
  53.1669970  49.3509080  55.2231180  56.7954290  44.5358140  52.4529280
  56.4911360  45.4150120  52.6779640  57.7500750  44.5957930  52.4886720
  52.8518020  45.3760880  53.6000640  52.4932960  46.0414730  54.1873980
  52.5572580  44.5444430  53.9713260  56.0531140  45.8345120  56.4840190
  55.7531280  45.9802300  55.5868010  56.8242380  45.2750410  56.3913580
  54.4272660  37.1063000  44.8166040  54.2987290  37.0980900  45.7650960
  53.6034680  37.4446090  44.4657050  51.4266590  38.8654120  54.2772740
  50.7125110  39.0651040  54.8825350  51.8461630  38.0893690  54.6487540
  58.2551430  42.5919320  44.2519630  57.5467580  43.0605660  44.6933240
  58.5395910  41.9341330  44.8864820  59.8807360  44.0116020  52.2512160
  60.3792610  44.4861840  52.9164010  60.0230310  43.0879540  52.4582190
  56.4586450  40.9004400  41.6270340  57.3076980  41.3374550  41.5610530
  56.0917720  41.2124660  42.4542400  67.0874220  40.2283980  53.0940550
  66.5847820  40.9689380  53.4334360  67.9030880  40.6167980  52.7777340
  51.5795430  46.4076750  56.0194930  52.0834450  45.8284030  56.5911160
  50.8402850  46.6916980  56.5571300  53.6118510  44.5506340  56.9145000
  53.6523850  44.2520210  57.8230230  54.4664010  44.9513950  56.7552520
  55.5524320  43.1298440  54.8819490  55.0220780  42.6389390  54.2542830
  56.2212390  43.5582640  54.3477420  64.9224550  44.9364060  56.6499830
  65.5045320  44.1816380  56.5620310  65.0986320  45.4671500  55.8731310
  56.0396620  40.0960810  54.9616780  55.9453490  39.4781560  54.2367650
  55.4594010  40.8227100  54.7346690  58.8058060  38.6534050  51.9944170
  58.3575360  38.6758310  51.1489720  58.1723260  38.2553070  52.5914470
  58.3150280  41.8225910  55.2570270  58.9049970  41.5141760  55.9448090
  57.4970520  41.3505660  55.4130170  63.1343710  41.4391720  55.4903290
  62.4459230  40.7773260  55.4253280  63.8549730  40.9929990  55.9351750
  55.0838600  40.3235740  39.0084550  55.3864500  40.3303170  38.1003700
  55.8233190  39.9733600  39.5052210  52.2321100  43.0919670  54.8366880
  51.3377150  43.0586430  55.1760590  52.7718650  43.2906460  55.6018130
  65.9197030  39.8751390  56.7218630  66.7967210  39.8834790  57.1052630
  65.9317870  39.1382230  56.1110980  53.3994460  42.0622480  40.2424830
  54.1086160  41.6405700  39.7572110  52.6834400  42.1297710  39.6108180
  53.0468620  38.1161810  39.2827480  53.7696750  38.6570750  39.6008700
  53.3193140  37.8425230  38.4069020  52.7360810  37.3668000  49.1850100
  53.3837000  36.8165380  48.7445260  53.1562650  37.6211150  50.0065910
  66.6313150  37.5609360  52.5419740  67.2685370  38.1743500  52.9078930
  66.7788040  37.5970020  51.5968970  52.4892810  37.5223670  51.9275420
  52.1407630  37.9787490  52.6933600  52.1580510  36.6280800  52.0097850
  54.0957180  50.6943270  56.0928610  54.0526810  50.3236180  56.9743070
  54.2268190  51.6320840  56.2330430  60.0017630  38.7135550  55.4494840
  59.9406520  39.3057380  56.1990250  60.9418010  38.6061510  55.3045100
  62.6392190  38.3705610  55.0887130  63.2532600  38.6884900  54.4268210
  63.1841750  37.8854200  55.7082990  53.1613450  37.0499870  55.2026190
  53.7096440  36.8687920  54.4392300  53.2268760  36.2593980  55.7382500
  52.4715460  38.1555070  42.8763050  53.2294820  38.2683950  42.3027080
  52.0092630  38.9924270  42.8306480  54.8440610  38.6819120  41.4165020
  55.3733370  37.8948920  41.2872970  55.4768930  39.3610310  41.6500550
  57.0378450  38.4194260  44.4710410  56.4081190  37.7181570  44.6380540
  56.4983590  39.1798390  44.2543570  57.1634010  37.6978240  56.9062900
  56.8818280  38.2011840  56.1423720  57.5453710  36.8999990  56.5405030
  63.7649470  37.1131820  57.4843370  63.6514920  37.4326430  58.3794890
  64.5819210  37.5144330  57.1880650  62.6707620  45.1324290  27.8478110
  62.5901670  44.2178900  27.5769820  62.2572040  45.6291360  27.1417820
  54.8191490  47.2223120  30.6063140  53.9876370  46.9671830  31.0059650
  55.4272470  47.2933890  31.3421060  54.7992750  51.2563210  30.8021160
  55.1020790  50.3660950  30.6231380  55.5436340  51.8133430  30.5743410
  53.2283440  42.1825010  24.3905530  52.3400140  42.5240980  24.2885410
  53.5124630  41.9825330  23.4986360  51.1916450  44.7830660  30.2745230
  51.7632560  44.0152860  30.2748870  51.1917990  45.0819420  29.3651840
  61.0496400  53.6021510  28.1290500  60.4307840  54.0579010  27.5584940
  61.9048180  53.7572970  27.7280200  52.4341320  40.1915020  32.0614160
  52.2544160  39.2940770  32.3416920  52.0321400  40.7386890  32.7361110
  55.4044830  40.7656510  25.4243910  55.5111580  41.6660240  25.7312670
  54.4937190  40.7174480  25.1338560  65.0563940  39.8881320  26.8954810
  65.8773560  39.3977890  26.9380290  65.0898020  40.4778980  27.6486650
  53.0527990  42.6875520  30.6696500  53.7338100  42.9513890  31.2883900
  52.7376040  41.8476390  31.0034510  57.2452560  43.7342880  29.7569090
  57.7530780  44.2323850  30.3974110  57.7765800  42.9578080  29.5808450
  55.5288660  38.3741440  34.0232510  55.5307100  38.8913830  33.2178410
  54.6992970  37.8971620  34.0002440  61.9159750  48.4860750  25.5222410
  61.2977020  48.9510200  24.9585130  62.4283000  49.1788230  25.9391920
  55.2103990  40.0851400  32.0302960  55.5520800  40.9293450  31.7356830
  54.2719800  40.2335140  32.1468300  51.2842950  49.1717280  22.8962040
  50.9070930  49.6604380  22.1646940  51.5416020  49.8442560  23.5268570
  58.8931880  37.5733670  28.3547550  59.2006860  37.0180560  27.6383050
  57.9632580  37.7078130  28.1720540  65.7392360  50.0117180  25.7345180
  65.6288690  49.0691510  25.8594600  65.7360610  50.3732820  26.6207940
  61.2812640  45.6382500  25.0907670  60.3541920  45.5719880  25.3196140
  61.4337460  46.5762630  24.9762910  61.2681720  41.9099500  22.0874830
  60.3285390  42.0713460  22.1727290  61.5864980  42.6285180  21.5410820
  65.3109930  47.2002800  25.5942920  64.6922350  46.8622350  24.9469220
  65.2934380  46.5562560  26.3022110  56.8869280  46.1647240  27.8727400
  56.4826280  45.4524490  27.3773300  56.9732400  45.8200480  28.7615440
  57.3550980  49.8514800  30.0366610  57.0579270  49.2460270  29.3574390
  58.3050800  49.8892110  29.9255970  55.5997900  42.9390450  31.6526440
  56.1512490  43.0485790  30.8779690  56.1141410  43.3128050  32.3681670
  63.4874630  46.4389610  22.6015670  63.9267910  45.6012040  22.4553490
  64.2003050  47.0719010  22.6879810  61.5970010  51.3785680  26.5696910
  62.0365920  52.1210010  26.1552300  61.5356900  51.6212250  27.4935870
  67.0691770  37.6932420  20.9156710  66.7564430  37.7859250  21.8155780
  67.8304240  38.2713450  20.8654140  53.5873910  45.0592220  25.3734050
  53.4671510  45.7854310  24.7615320  53.2774800  44.2895130  24.8961960
  51.2259280  48.2307360  31.1802690  51.3039700  48.3656130  30.2358410
  51.8400960  47.5223250  31.3730810  52.4706910  49.9307550  27.5908870
  52.0634990  50.0722140  26.7362470  53.3619920  49.6467710  27.3880080
  64.2640190  54.3654800  23.9259920  64.1041330  54.0757740  24.8241750
  64.0986900  53.5894930  23.3905150  56.7428570  54.1453330  25.7031540
  56.5671050  53.2288870  25.4899340  55.8884310  54.5040620  25.9429340
  63.9666320  51.8742360  22.4857920  63.2731480  51.8719650  21.8260200
  64.7089180  51.4501680  22.0552090  63.5316250  53.5005070  26.5606410
  63.9873200  52.7194450  26.8745030  63.8708770  54.2111890  27.1047590
  56.0537570  38.4027290  28.7557720  55.6105720  39.1836830  28.4242240
  56.6122560  38.7257180  29.4628660  59.1696390  38.0237990  23.6363550
  58.5450570  38.0197860  24.3616860  59.0826510  37.1568950  23.2399520
  58.0913470  38.9474620  30.6147320  58.3885800  39.8537450  30.5339340
  58.6399030  38.4593400  30.0006890  55.8451790  43.5260860  26.4838970
  55.6192710  43.3098030  27.3885590  55.0644320  43.9589320  26.1384940
  63.0749550  43.5324230  25.0829620  62.4758440  44.2560030  24.8993240
  63.6229160  43.4701010  24.3006070  61.6814420  42.1687770  27.1132900
  62.0743990  42.4859970  26.3001590  62.0431270  41.2899650  27.2277420
  53.4161540  40.8360110  35.3033020  53.0224930  41.6835320  35.5105800
  52.7279940  40.1986480  35.4941660  50.7178590  38.7588570  29.3363100
  50.4291640  39.3291430  30.0488080  51.4624350  38.2793020  29.6994330
  50.9048820  42.7008690  20.5465820  50.8223490  43.6439450  20.6880810
  50.5531880  42.5583600  19.6678170  58.7046950  41.4347720  29.6136170
  58.7083010  40.9937670  28.7640710  59.5998070  41.7565050  29.7207990
  54.5549330  41.3174210  28.5730380  54.2149380  41.7949440  29.3297430
  53.7926650  40.8639330  28.2131480  58.7667100  42.4359800  22.6042930
  58.8879920  42.3946280  23.5528750  58.3815610  43.2983950  22.4489660
  62.7295470  40.2127200  30.6206620  62.7468210  40.6635850  31.4648470
  62.4811050  39.3132840  30.8340060  57.7788600  44.7460940  22.0026230
  57.2105500  44.2979190  21.3762140  58.4877600  45.1053720  21.4691380
  51.8695410  40.2393190  27.4895050  51.5842330  39.8748860  28.3273670
  51.8074270  39.5073650  26.8758190  55.3236080  48.7419130  24.2752640
  54.5498340  48.2016750  24.1151360  56.0530710  48.2225740  23.9370400
  61.5434000  39.1322450  24.2108420  60.7298610  38.6335620  24.1353730
  61.3495950  39.9720700  23.7944770  64.2582390  43.5042100  22.5070580
  65.1462010  43.8159330  22.3321920  64.2287480  42.6314350  22.1151160
  55.3673480  48.4099510  27.9131450  55.8852150  47.6067770  27.8588340
  54.9157500  48.3478650  28.7548280  60.2542980  49.6765790  23.1858750
  60.5958680  50.4208020  22.6902070  59.4255690  49.9896910  23.5483580
  52.8518020  45.3760880  34.8257150  52.4932960  46.0414730  35.4130490
  52.5572580  44.5444430  35.1969770  66.5296660  44.8153940  21.9750440
  66.4460380  45.2468160  21.1246880  67.2490850  45.2752290  22.4077260
  67.5583910  51.6696200  24.7032570  66.9160070  51.0151820  24.9776290
  67.1714570  52.0751290  23.9273240  63.1370390  48.9981630  28.5504260
  63.4894210  48.4009760  27.8905630  62.2532720  48.6725860  28.7212510
  59.2233670  49.7579320  25.9574670  59.9104800  50.3048530  26.3382260
  58.4366090  50.3020050  25.9924280  51.3626070  45.3752140  21.4491750
  52.2320920  45.6576940  21.7327670  50.8716390  46.1888010  21.3340560
  58.5260880  46.7625350  25.5700030  58.9823660  47.5730600  25.7960220
  58.1749090  46.4448490  26.4018520  54.4272660  37.1063000  26.0422550
  54.2987290  37.0980900  26.9907470  53.6034680  37.4446090  25.6913560
  65.9481290  50.5612660  21.2408920  65.7218870  49.8443100  21.8333560
  65.5577490  50.3125100  20.4030670  51.7297320  54.5879520  22.0153380
  52.0894960  55.1868860  21.3610650  51.5889660  55.1339410  22.7888410
  51.4266590  38.8654120  35.5029250  50.7125110  39.0651040  36.1081860
  51.8461630  38.0893690  35.8744050  65.5297540  48.4784600  22.9023080
  65.2419240  48.9397290  23.6900960  66.3249710  48.0182370  23.1707300
  57.7465940  51.9710720  22.8327050  57.7376040  52.7040410  22.2171560
  56.8264300  51.7242300  22.9254010  53.3472580  47.1925610  23.5773810
  52.7400530  47.9324510  23.5869110  53.8221930  47.2824970  22.7512010
  66.2867400  40.3133370  24.0618260  65.6580560  40.4179040  23.3476490
  65.7919320  40.5330150  24.8512140  60.7325540  52.0338960  21.4952240
  60.8337520  51.8302950  20.5654220  59.8327280  51.7797240  21.7000020
  58.2551430  42.5919320  25.4776140  57.5467580  43.0605660  25.9189750
  58.5395910  41.9341330  26.1121330  62.2866860  39.3169980  26.9171930
  62.1634640  39.3356110  25.9681440  63.2351420  39.3648920  27.0370330
  59.3743650  54.5525280  26.1899910  59.6285150  54.5146670  25.2679280
  58.4256130  54.4258610  26.1828160  56.4586450  40.9004400  22.8526850
  57.3076980  41.3374550  22.7867040  56.0917720  41.2124660  23.6798910
  65.3796230  45.4717160  27.7658420  64.4386370  45.4867390  27.9406110
  65.6940300  44.6853120  28.2118720  55.3577870  47.1536760  21.3262380
  56.1241140  47.0418120  21.8887810  55.4352560  46.4574730  20.6739150
  54.0524630  44.5861830  22.0095270  54.1328220  43.6389340  22.1212670
  54.9444380  44.9168710  22.1155930  54.8539340  54.7357220  29.1129810
  55.5901820  54.1872680  29.3838380  55.2380260  55.6013230  28.9735800
  51.7384820  50.8030790  24.9871320  50.8124600  51.0451930  24.9776730
  52.2041250  51.6305050  24.8656070  57.9641650  53.9087530  20.9355380
  58.7570260  54.1976360  20.4837170  57.4446000  53.4779700  20.2567860
  67.0171820  53.1357660  22.3592120  66.7313330  52.7222800  21.5446300
  66.8191370  54.0645370  22.2392640  58.4819050  49.1290940  20.7997730
  58.3769690  48.5143290  21.5259110  58.3143270  48.6056830  20.0160740
  61.7221780  48.1910970  21.4039720  61.1731880  48.6380270  22.0482460
  62.3441040  47.6860220  21.9277390  57.3896900  47.1501890  23.3005020
  57.8113320  46.9841760  24.1436410  57.5147740  46.3402120  22.8060160
  59.9024540  46.1739500  20.5482120  60.4230200  45.4588520  20.1823270
  60.5492940  46.8125370  20.8482630  56.0396620  40.0960810  36.1873290
  55.9453490  39.4781560  35.4624160  55.4594010  40.8227100  35.9603200
  58.8058060  38.6534050  33.2200680  58.3575360  38.6758310  32.3746230
  58.1723260  38.2553070  33.8170980  56.2855800  43.2235120  20.2463180
  56.0844860  42.3602480  20.6076520  56.1147850  43.1368480  19.3084780
  63.7644110  38.0343350  22.7750060  64.0446400  37.1911250  23.1309480
  62.9909840  38.2666460  23.2888810  55.0838600  40.3235740  20.2341060
  55.3864500  40.3303170  19.3260210  55.8233190  39.9733600  20.7308720
  58.3023530  39.2670360  21.2197260  57.9545530  38.5894350  20.6399710
  58.5036300  38.8059870  22.0340650  60.4672570  54.2551110  22.8383860
  61.3623360  54.5936080  22.8602620  60.4990200  53.5330520  22.2108140
  54.1068730  49.6278160  21.0670860  54.5443600  50.1707830  21.7228440
  54.5916460  48.8025110  21.0767200  51.3214530  52.4167190  28.5191120
  51.6517540  51.5488250  28.2869760  51.7505530  52.6225710  29.3496080
  55.9176450  50.7476200  26.1793090  55.6171990  50.6241170  27.0797000
  55.8113940  49.8884790  25.7708820  51.8104740  53.2837780  31.2572750
  51.3735730  53.4638580  32.0896900  52.3782420  54.0412400  31.1154470
  68.6868370  50.5272600  20.8819770  67.8561330  50.5949250  21.3527000
  68.8640200  51.4176720  20.5786630  68.1424830  47.2720080  23.3853970
  68.9043740  47.8416730  23.4913660  68.1579200  46.7047280  24.1562280
  51.6429170  45.7958010  27.6161630  50.9878010  45.5269650  26.9721330
  52.4807120  45.6862490  27.1663610  68.1944000  47.5654450  20.5426490
  68.4692840  48.4733330  20.4145710  68.0054740  47.5016980  21.4788480
  64.5919610  40.5899300  21.8380120  65.0104490  40.4030280  20.9976780
  64.2855670  39.7378350  22.1483050  68.0909340  45.5023440  25.5355920
  67.7152940  44.7351370  25.1037210  67.3612460  45.8846140  26.0230850
  52.6805100  46.1810580  32.1564970  53.0478140  46.0937980  33.0360990
  52.1115920  45.4177130  32.0571830  52.2321100  43.0919670  36.0623390
  51.3377150  43.0586430  36.4017100  52.7718650  43.2906460  36.8274640
  50.8567250  43.0056940  23.5586960  49.9531330  43.2687140  23.3838620
  51.3407870  43.2768110  22.7786920  53.3994460  42.0622480  21.4681340
  54.1086160  41.6405700  20.9828620  52.6834400  42.1297710  20.8364690
  53.0468620  38.1161810  20.5083990  53.7696750  38.6570750  20.8265210
  53.3193140  37.8425230  19.6325530  66.8560270  42.9854280  24.7755570
  67.3519390  42.7525150  25.5604450  66.6576340  42.1466120  24.3593210
  52.7360810  37.3668000  30.4106610  53.3837000  36.8165380  29.9701770
  53.1562650  37.6211150  31.2322420  68.2847430  41.6215230  27.3093250
  68.1746710  41.4671270  28.2475520  69.0455020  41.0936170  27.0668660
  69.1737700  39.4523150  20.5499390  70.0987010  39.3204330  20.3417680
  69.1513490  39.5315970  21.5035840  52.4892810  37.5223670  33.1531930
  52.1407630  37.9787490  33.9190110  52.1580510  36.6280800  33.2354360
  60.0017630  38.7135550  36.6751350  59.9406520  39.3057380  37.4246760
  60.9418010  38.6061510  36.5301610  53.1613450  37.0499870  36.4282700
  53.7096440  36.8687920  35.6648810  53.2268760  36.2593980  36.9639010
  63.3800230  36.9337750  32.6412930  62.5060070  37.2672860  32.4385860
  63.2710980  36.4610930  33.4664800  64.2872210  39.1408620  34.0254650
  63.9585570  38.3260380  33.6456380  65.2354510  39.0978430  33.9020340
  61.1275050  37.8507590  31.5805840  60.3446840  38.3253090  31.8602600
  60.8337980  36.9462420  31.4719020  65.6796120  38.5530690  29.6254930
  66.1204210  38.4975790  28.7776530  65.4103710  39.4688700  29.6965110
  51.8487440  54.3238290  26.5987700  51.6809480  53.6908970  27.2969590
  50.9821950  54.5297690  26.2481890  52.4715460  38.1555070  24.1019560
  53.2294820  38.2683950  23.5283590  52.0092630  38.9924270  24.0562990
  59.0129270  40.2694340  27.0921870  58.2003780  39.8951230  26.7517750
  59.5170910  39.5139420  27.3943060  63.5154250  36.9336790  28.3304940
  64.1183620  37.5057000  28.8053460  62.7747240  37.4976230  28.1078840
  66.6588850  37.3358350  23.6045220  66.8539480  38.2341800  23.8712650
  65.8718720  37.1045430  24.0978170  53.4550140  53.0171520  24.0437840
  52.9297760  53.3979550  23.3399800  53.3794720  53.6422290  24.7647550
  54.8440610  38.6819120  22.6421530  55.3733370  37.8948920  22.5129480
  55.4768930  39.3610310  22.8757060  57.0378450  38.4194260  25.6966920
  56.4081190  37.7181570  25.8637050  56.4983590  39.1798390  25.4800080
  57.1634010  37.6978240  38.1319410  56.8818280  38.2011840  37.3680230
  57.5453710  36.8999990  37.7661540  56.0543110  54.9653900  22.9187090
  56.7861930  54.6813180  22.3710980  56.3136780  54.7267180  23.8086470
  55.2157900  51.0818630  22.9233420  54.5866780  51.5503730  23.4719250
  55.3305730  50.2367850  23.3579610  62.6707620  45.1324290   9.0734620
  62.5901670  44.2178900   8.8026330  62.2572040  45.6291360   8.3674330
  60.8025660  46.9103310  10.9543890  60.0267760  46.4303750  11.2442460
  61.4538590  46.2308960  10.7800050  54.8191490  47.2223120  11.8319650
  53.9876370  46.9671830  12.2316160  55.4272470  47.2933890  12.5677570
  64.8233090  51.3163500   9.7343020  64.3614620  50.5450740  10.0630190
  65.6358640  51.3429570  10.2395470  54.7992750  51.2563210  12.0277670
  55.1020790  50.3660950  11.8487890  55.5436340  51.8133430  11.7999920
  53.2283440  42.1825010   5.6162040  52.3400140  42.5240980   5.5141920
  53.5124630  41.9825330   4.7242870  51.1916450  44.7830660  11.5001740
  51.7632560  44.0152860  11.5005380  51.1917990  45.0819420  10.5908350
  61.0496400  53.6021510   9.3547010  60.4307840  54.0579010   8.7841450
  61.9048180  53.7572970   8.9536710  60.2434650  49.5860500  10.9614050
  60.1742930  48.6450440  10.8003180  61.0054510  49.6761910  11.5336620
  52.4341320  40.1915020  13.2870670  52.2544160  39.2940770  13.5673430
  52.0321400  40.7386890  13.9617620  61.2739820  42.3930880  11.1882980
  61.6504640  41.5202760  11.0756650  61.1759330  42.7289580  10.2973420
  55.4044830  40.7656510   6.6500420  55.5111580  41.6660240   6.9569180
  54.4937190  40.7174480   6.3595070  65.0563940  39.8881320   8.1211320
  65.8773560  39.3977890   8.1636800  65.0898020  40.4778980   8.8743160
  53.0527990  42.6875520  11.8953010  53.7338100  42.9513890  12.5140410
  52.7376040  41.8476390  12.2291020  57.2452560  43.7342880  10.9825600
  57.7530780  44.2323850  11.6230620  57.7765800  42.9578080  10.8064960
  69.3463490  41.9048070  14.6854950  68.6415660  42.2929780  14.1670060
  69.6121410  42.5998360  15.2875880  55.5288660  38.3741440  15.2489020
  55.5307100  38.8913830  14.4434920  54.6992970  37.8971620  15.2258950
  61.9159750  48.4860750   6.7478920  61.2977020  48.9510200   6.1841640
  62.4283000  49.1788230   7.1648430  56.7791510  48.0136620  13.4262520
  56.4460890  48.6405540  14.0683590  56.9558190  48.5398500  12.6464190
  65.2925420  41.8281700  10.8938860  64.5880990  42.1166590  11.4741970
  65.6537580  42.6381810  10.5338420  55.2103990  40.0851400  13.2559470
  55.5520800  40.9293450  12.9613340  54.2719800  40.2335140  13.3724810
  55.9910610  49.9817420  15.2411700  56.6084610  50.6568500  14.9596150
  55.1303730  50.3905400  15.1499200  51.2842950  49.1717280   4.1218550
  50.9070930  49.6604380   3.3903450  51.5416020  49.8442560   4.7525080
  66.9088200  51.4456830  13.1566340  66.2251720  52.1155940  13.1483010
  67.4482490  51.6437480  12.3911200  68.3612340  41.2736490  11.2848070
  67.4137250  41.3075470  11.4163500  68.6862330  42.0875440  11.6697430
  58.8931880  37.5733670   9.5804060  59.2006860  37.0180560   8.8639560
  57.9632580  37.7078130   9.3977050  64.4446940  53.2900960  11.8711520
  64.4574100  52.8863250  11.0033780  63.8922160  54.0648250  11.7672950
  65.7392360  50.0117180   6.9601690  65.6288690  49.0691510   7.0851110
  65.7360610  50.3732820   7.8464450  63.8432380  48.1930800  13.1994130
  64.2601170  47.9790910  12.3647590  64.5672200  48.4503590  13.7702750
  61.2812640  45.6382500   6.3164180  60.3541920  45.5719880   6.5452650
  61.4337460  46.5762630   6.2019420  61.2681720  41.9099500   3.3131340
  60.3285390  42.0713460   3.3983800  61.5864980  42.6285180   2.7667330
  67.7894480  46.5918020  13.2910370  66.9613110  46.6611110  12.8160500
  68.3844960  47.1772330  12.8226200  65.3109930  47.2002800   6.8199430
  64.6922350  46.8622350   6.1725730  65.2934380  46.5562560   7.5278620
  64.7536490  43.3787340  14.2365240  64.3407670  44.2041050  14.4905230
  64.0212440  42.7932380  14.0441600  56.8869280  46.1647240   9.0983910
  56.4826280  45.4524490   8.6029810  56.9732400  45.8200480   9.9871950
  57.3550980  49.8514800  11.2623120  57.0579270  49.2460270  10.5830900
  58.3050800  49.8892110  11.1512480  55.5997900  42.9390450  12.8782950
  56.1512490  43.0485790  12.1036200  56.1141410  43.3128050  13.5938180
  65.4436590  53.4246670  14.9246220  64.9667150  54.2318860  14.7318830
  64.7598380  52.7725000  15.0772430  56.4469410  49.5896490  17.9130920
  55.5497940  49.8136460  18.1604320  56.4722280  49.7131430  16.9642320
  63.4874630  46.4389610   3.8272180  63.9267910  45.6012040   3.6810000
  64.2003050  47.0719010   3.9136320  55.2740630  46.4609810  16.4888290
  55.1348400  47.3332610  16.8575690  54.3921990  46.1182620  16.3436230
  61.5970010  51.3785680   7.7953420  62.0365920  52.1210010   7.3808810
  61.5356900  51.6212250   8.7192380  57.0720980  52.4031510  18.6973440
  57.0436410  52.8074460  17.8301870  56.9085950  51.4741870  18.5345040
  67.0691770  37.6932420   2.1413220  66.7564430  37.7859250   3.0412290
  67.8304240  38.2713450   2.0910650  53.5873910  45.0592220   6.5990560
  53.4671510  45.7854310   5.9871830  53.2774800  44.2895130   6.1218470
  69.0235800  53.1858610  19.9937610  69.4995520  53.6641500  20.6726690
  69.6442960  53.1176100  19.2683110  51.2259280  48.2307360  12.4059200
  51.3039700  48.3656130  11.4614920  51.8400960  47.5223250  12.5987320
  52.4706910  49.9307550   8.8165380  52.0634990  50.0722140   7.9618980
  53.3619920  49.6467710   8.6136590  68.4269050  50.3771460  17.1537620
  68.5532110  50.1383340  16.2354800  68.4690430  49.5456000  17.6259700
  62.2885790  54.0799460  15.7232430  62.8030460  53.9907470  16.5254860
  61.4454870  54.4259160  16.0160340  64.2640190  54.3654800   5.1516430
  64.1041330  54.0757740   6.0498260  64.0986900  53.5894930   4.6161660
  56.7428570  54.1453330   6.9288050  56.5671050  53.2288870   6.7155850
  55.8884310  54.5040620   7.1685850  63.9666320  51.8742360   3.7114430
  63.2731480  51.8719650   3.0516710  64.7089180  51.4501680   3.2808600
  63.5316250  53.5005070   7.7862920  63.9873200  52.7194450   8.1001540
  63.8708770  54.2111890   8.3304100  68.2793060  42.4303920  18.1187360
  67.6637330  42.9383590  17.5902820  67.9589480  41.5302250  18.0613300
  51.2818800  49.2721530  14.9453660  51.4449840  48.8026890  14.1273030
  51.7471250  48.7645090  15.6102500  56.0537570  38.4027290   9.9814230
  55.6105720  39.1836830   9.6498750  56.6122560  38.7257180  10.6885170
  60.3407380  41.2695810  15.5849550  59.8786750  41.4778830  16.3969490
  59.9385490  40.4555160  15.2820220  65.3411890  42.4904760  16.7146210
  64.4905480  42.1910510  17.0355280  65.1813680  42.7346770  15.8030030
  62.4361600  43.9906510  18.8145000  62.7615010  43.1570260  18.4747230
  63.2241930  44.5135030  18.9623330  59.1696390  38.0237990   4.8620060
  58.5450570  38.0197860   5.5873370  59.0826510  37.1568950   4.4656030
  58.0913470  38.9474620  11.8403830  58.3885800  39.8537450  11.7595850
  58.6399030  38.4593400  11.2263400  55.8451790  43.5260860   7.7095480
  55.6192710  43.3098030   8.6142100  55.0644320  43.9589320   7.3641450
  63.0749550  43.5324230   6.3086130  62.4758440  44.2560030   6.1249750
  63.6229160  43.4701010   5.5262580  58.2851000  44.4246440  18.3755750
  58.1894600  43.4841170  18.2256150  59.1282980  44.6461510  17.9803820
  61.6814420  42.1687770   8.3389410  62.0743990  42.4859970   7.5258100
  62.0431270  41.2899650   8.4533930  53.4161540  40.8360110  16.5289530
  53.0224930  41.6835320  16.7362310  52.7279940  40.1986480  16.7198170
  59.9906590  40.9195080  19.5986270  59.3004910  40.7267280  20.2332360
  60.7338890  41.2029720  20.1310570  50.7178590  38.7588570  10.5619610
  50.4291640  39.3291430  11.2744590  51.4624350  38.2793020  10.9250840
  62.2669560  44.7593520  12.4340190  61.5350680  45.2680330  12.7830290
  61.8693900  43.9423500  12.1328970  58.7046950  41.4347720  10.8392680
  58.7083010  40.9937670   9.9897220  59.5998070  41.7565050  10.9464500
  54.5549330  41.3174210   9.7986890  54.2149380  41.7949440  10.5553940
  53.7926650  40.8639330   9.4387990  58.7667100  42.4359800   3.8299440
  58.8879920  42.3946280   4.7785260  58.3815610  43.2983950   3.6746170
  62.7295470  40.2127200  11.8463130  62.7468210  40.6635850  12.6904980
  62.4811050  39.3132840  12.0596570  57.7788600  44.7460940   3.2282740
  57.2105500  44.2979190   2.6018650  58.4877600  45.1053720   2.6947890
  66.1566220  37.6259380  17.6849510  66.4811990  36.8949040  18.2107490
  66.1922730  37.3073020  16.7830500  52.8557780  48.6472960  17.1049470
  52.4712570  48.0066630  17.7032430  53.1669970  49.3509080  17.6744200
  59.0054920  45.4949500  12.5858090  59.3725050  45.0208070  13.3319430
  58.8159980  46.3691070  12.9266430  51.8695410  40.2393190   8.7151560
  51.5842330  39.8748860   9.5530180  51.8074270  39.5073650   8.1014700
  56.7954290  44.5358140  14.9042300  56.4911360  45.4150120  15.1292660
  57.7500750  44.5957930  14.9399740  55.3236080  48.7419130   5.5009150
  54.5498340  48.2016750   5.3407870  56.0530710  48.2225740   5.1626910
  66.0824060  47.7384490  11.2935540  66.8023180  48.2339780  10.9031650
  65.8805880  47.0602380  10.6489410  61.5434000  39.1322450   5.4364930
  60.7298610  38.6335620   5.3610240  61.3495950  39.9720700   5.0201280
  61.4642860  47.8093550  17.1804540  61.3980170  46.8889220  16.9262130
  60.8348000  47.9068990  17.8949180  64.2582390  43.5042100   3.7327090
  65.1462010  43.8159330   3.5578430  64.2287480  42.6314350   3.3407670
  55.3673480  48.4099510   9.1387960  55.8852150  47.6067770   9.0844850
  54.9157500  48.3478650   9.9804790  60.2542980  49.6765790   4.4115260
  60.5958680  50.4208020   3.9158580  59.4255690  49.9896910   4.7740090
  52.8518020  45.3760880  16.0513660  52.4932960  46.0414730  16.6387000
  52.5572580  44.5444430  16.4226280  56.0531140  45.8345120  18.9353210
  55.7531280  45.9802300  18.0381030  56.8242380  45.2750410  18.8426600
  61.3959590  50.6314120  16.9308340  61.4104130  49.6995080  16.7127250
  60.6884690  50.7173880  17.5698110  66.5296660  44.8153940   3.2006950
  66.4460380  45.2468160   2.3503390  67.2490850  45.2752290   3.6333770
  67.6070800  47.2721460  16.2776920  66.8818990  47.8650240  16.0806310
  68.1346260  47.2645000  15.4790290  67.5583910  51.6696200   5.9289080
  66.9160070  51.0151820   6.2032800  67.1714570  52.0751290   5.1529750
  63.1370390  48.9981630   9.7760770  63.4894210  48.4009760   9.1162140
  62.2532720  48.6725860   9.9469020  59.2233670  49.7579320   7.1831180
  59.9104800  50.3048530   7.5638770  58.4366090  50.3020050   7.2180790
  51.3626070  45.3752140   2.6748260  52.2320920  45.6576940   2.9584180
  50.8716390  46.1888010   2.5597070  58.5260880  46.7625350   6.7956540
  58.9823660  47.5730600   7.0216730  58.1749090  46.4448490   7.6275030
  60.8293490  52.2731690  14.0248840  61.4735710  52.4791070  14.7022260
  61.1922930  51.5120090  13.5719690  54.4272660  37.1063000   7.2679060
  54.2987290  37.0980900   8.2163980  53.6034680  37.4446090   6.9170070
  62.1025570  50.2764040  12.7426290  62.7447800  49.5757200  12.8558460
  62.6274920  51.0562480  12.5623180  65.9481290  50.5612660   2.4665430
  65.7218870  49.8443100   3.0590070  65.5577490  50.3125100   1.6287180
  63.8763190  51.0758940  15.9462350  64.2119430  51.6625630  16.6240270
  62.9563530  50.9451650  16.1760140  51.7297320  54.5879520   3.2409890
  52.0894960  55.1868860   2.5867160  51.5889660  55.1339410   4.0144920
  51.4266590  38.8654120  16.7285760  50.7125110  39.0651040  17.3338370
  51.8461630  38.0893690  17.1000560  65.5297540  48.4784600   4.1279590
  65.2419240  48.9397290   4.9157470  66.3249710  48.0182370   4.3963810
  51.7139180  52.8534380  17.7152290  51.8230300  51.9129120  17.5747680
  51.0619740  53.1189130  17.0666020  59.7051770  51.1250270  19.1150410
  59.3848640  50.4059510  19.6596100  59.0310130  51.8005340  19.1886470
  57.7465940  51.9710720   4.0583560  57.7376040  52.7040410   3.4428070
  56.8264300  51.7242300   4.1510520  53.3472580  47.1925610   4.8030320
  52.7400530  47.9324510   4.8125620  53.8221930  47.2824970   3.9768520
  62.9205370  41.3576430  14.4787210  63.2886190  40.5371640  14.8066780
  62.0603570  41.4178320  14.8942860  66.2867400  40.3133370   5.2874770
  65.6580560  40.4179040   4.5733000  65.7919320  40.5330150   6.0768650
  60.7325540  52.0338960   2.7208750  60.8337520  51.8302950   1.7910730
  59.8327280  51.7797240   2.9256530  58.2551430  42.5919320   6.7032650
  57.5467580  43.0605660   7.1446260  58.5395910  41.9341330   7.3377840
  59.8807360  44.0116020  14.7025180  60.3792610  44.4861840  15.3677030
  60.0230310  43.0879540  14.9095210  62.2866860  39.3169980   8.1428440
  62.1634640  39.3356110   7.1937950  63.2351420  39.3648920   8.2626840
  59.3743650  54.5525280   7.4156420  59.6285150  54.5146670   6.4935790
  58.4256130  54.4258610   7.4084670  56.4586450  40.9004400   4.0783360
  57.3076980  41.3374550   4.0123550  56.0917720  41.2124660   4.9055420
  67.0874220  40.2283980  15.5453570  66.5847820  40.9689380  15.8847380
  67.9030880  40.6167980  15.2290360  65.3796230  45.4717160   8.9914930
  64.4386370  45.4867390   9.1662620  65.6940300  44.6853120   9.4375230
  55.3577870  47.1536760   2.5518890  56.1241140  47.0418120   3.1144320
  55.4352560  46.4574730   1.8995660  54.0524630  44.5861830   3.2351780
  54.1328220  43.6389340   3.3469180  54.9444380  44.9168710   3.3412440
  67.3821810  52.6426010  10.6669190  67.5069230  53.4657180  11.1393000
  68.2487370  52.4316740  10.3193340  54.8539340  54.7357220  10.3386320
  55.5901820  54.1872680  10.6094890  55.2380260  55.6013230  10.1992310
  51.7384820  50.8030790   6.2127830  50.8124600  51.0451930   6.2033240
  52.2041250  51.6305050   6.0912580  53.8597620  53.9203290  19.5271900
  54.6610350  54.2415340  19.9407300  53.3449440  53.5598870  20.2491810
  57.9641650  53.9087530   2.1611890  58.7570260  54.1976360   1.7093680
  57.4446000  53.4779700   1.4824370  62.6962250  50.0283160  19.4747310
  62.0900410  50.0514760  18.7343060  62.3916360  49.2966200  20.0114560
  64.1262620  53.7563450  18.0856720  65.0784370  53.6721470  18.0356960
  63.9790840  54.4205160  18.7590510  67.0171820  53.1357660   3.5848630
  66.7313330  52.7222800   2.7702810  66.8191370  54.0645370   3.4649150
  51.5795430  46.4076750  18.4707950  52.0834450  45.8284030  19.0424180
  50.8402850  46.6916980  19.0084320  58.6333370  47.8147740  18.0043470
  57.8679040  48.3832740  17.9198140  58.8149330  47.5223950  17.1111700
  61.7221780  48.1910970   2.6296230  61.1731880  48.6380270   3.2738970
  62.3441040  47.6860220   3.1533900  65.7756720  49.5453070  18.5618490
  66.5166190  49.8828830  18.0585950  65.0129400  49.7145130  18.0088260
  53.6118510  44.5506340  19.3658020  53.6523850  44.2520210  20.2743250
  54.4664010  44.9513950  19.2065540  57.3896900  47.1501890   4.5261530
  57.8113320  46.9841760   5.3692920  57.5147740  46.3402120   4.0316670
  55.5524320  43.1298440  17.3332510  55.0220780  42.6389390  16.7055850
  56.2212390  43.5582640  16.7990440  64.4502380  47.5967900  17.0973700
  64.8643400  47.7512980  17.9464120  63.5153380  47.7223120  17.2599480
  64.9224550  44.9364060  19.1012850  65.5045320  44.1816380  19.0133330
  65.0986320  45.4671500  18.3244330  56.0396620  40.0960810  17.4129800
  55.9453490  39.4781560  16.6880670  55.4594010  40.8227100  17.1859710
  58.8058060  38.6534050  14.4457190  58.3575360  38.6758310  13.6002740
  58.1723260  38.2553070  15.0427490  59.2117610  47.5488380  15.0669630
  59.6305720  48.3921110  14.8945870  58.2926240  47.6860420  14.8376410
  61.5481510  45.2804560  16.4507470  61.6677720  44.6845700  17.1902310
  62.4075510  45.3174250  16.0308770  63.8869410  45.8341750  15.0269980
  63.3604630  46.3584370  14.4235120  64.2300750  46.4669140  15.6579710
  57.0625030  53.8541390  16.1827360  56.5246120  54.5787450  15.8636060
  57.3158990  53.3771730  15.3924700  58.3150280  41.8225910  17.7083290
  58.9049970  41.5141760  18.3961110  57.4970520  41.3505660  17.8643190
  63.1343710  41.4391720  17.9416310  62.4459230  40.7773260  17.8766300
  63.8549730  40.9929990  18.3864770  63.7644110  38.0343350   4.0006570
  64.0446400  37.1911250   4.3565990  62.9909840  38.2666460   4.5145320
  59.9187240  55.0892600  16.4414010  59.8445940  55.9927740  16.7486380
  59.0166080  54.7704500  16.4136080  58.3023530  39.2670360   2.4453770
  57.9545530  38.5894350   1.8656220  58.5036300  38.8059870   3.2597160
  60.4672570  54.2551110   4.0640370  61.3623360  54.5936080   4.0859130
  60.4990200  53.5330520   3.4364650  54.1068730  49.6278160   2.2927370
  54.5443600  50.1707830   2.9484950  54.5916460  48.8025110   2.3023710
  51.3214530  52.4167190   9.7447630  51.6517540  51.5488250   9.5126270
  51.7505530  52.6225710  10.5752590  55.9176450  50.7476200   7.4049600
  55.6171990  50.6241170   8.3053510  55.8113940  49.8884790   6.9965330
  51.8104740  53.2837780  12.4829260  51.3735730  53.4638580  13.3153410
  52.3782420  54.0412400  12.3410980  67.4466920  52.7854780  16.7706570
  66.8468910  52.8447340  16.0270490  67.5760820  51.8459760  16.9003420
  68.6868370  50.5272600   2.1076280  67.8561330  50.5949250   2.5783510
  68.8640200  51.4176720   1.8043140  68.1424830  47.2720080   4.6110480
  68.9043740  47.8416730   4.7170170  68.1579200  46.7047280   5.3818790
  51.6429170  45.7958010   8.8418140  50.9878010  45.5269650   8.1977840
  52.4807120  45.6862490   8.3920120  69.1484800  48.1270180   9.4552410
  69.5193630  47.3437500   9.0488380  69.7886730  48.8159280   9.2769710
  66.1318560  49.5106760  14.8682730  65.3178400  49.9403920  15.1308520
  66.5392760  50.1225170  14.2551780  68.1944000  47.5654450   1.7683000
  68.4692840  48.4733330   1.6402220  68.0054740  47.5016980   2.7044990
  64.5919610  40.5899300   3.0636630  65.0104490  40.4030280   2.2233290
  64.2855670  39.7378350   3.3739560  68.0909340  45.5023440   6.7612430
  67.7152940  44.7351370   6.3293720  67.3612460  45.8846140   7.2487360
  52.6805100  46.1810580  13.3821480  53.0478140  46.0937980  14.2617500
  52.1115920  45.4177130  13.2828340  67.4808960  44.6494960  16.3951950
  67.2495050  44.4207710  15.4949900  67.7413510  45.5694510  16.3496840
  52.2321100  43.0919670  17.2879900  51.3377150  43.0586430  17.6273610
  52.7718650  43.2906460  18.0531150  65.9197030  39.8751390  19.1731650
  66.7967210  39.8834790  19.5565650  65.9317870  39.1382230  18.5624000
  50.8567250  43.0056940   4.7843470  49.9531330  43.2687140   4.6095130
  51.3407870  43.2768110   4.0043430  67.3660300  43.7280930  10.0619670
  67.8897780  43.2343580   9.4309840  67.9519720  43.8631290  10.8067240
  67.5450020  43.8120800  13.5839220  66.5952730  43.7784340  13.6984210
  67.7263030  44.7220910  13.3488990  53.3994460  42.0622480   2.6937850
  54.1086160  41.6405700   2.2085130  52.6834400  42.1297710   2.0621200
  66.8560270  42.9854280   6.0012080  67.3519390  42.7525150   6.7860960
  66.6576340  42.1466120   5.5849720  52.7360810  37.3668000  11.6363120
  53.3837000  36.8165380  11.1958280  53.1562650  37.6211150  12.4578930
  68.2847430  41.6215230   8.5349760  68.1746710  41.4671270   9.4732030
  69.0455020  41.0936170   8.2925170  66.6313150  37.5609360  14.9932760
  67.2685370  38.1743500  15.3591950  66.7788040  37.5970020  14.0481990
  69.1737700  39.4523150   1.7755900  70.0987010  39.3204330   1.5674190
  69.1513490  39.5315970   2.7292350  69.2476190  40.2233810   4.4012610
  68.4527690  40.1578930   4.9305520  69.4519470  41.1584450   4.3897960
  66.1894610  54.2625360   8.3951000  66.7853680  53.9409930   7.7185420
  66.4472760  53.7897180   9.1864270  52.4892810  37.5223670  14.3788440
  52.1407630  37.9787490  15.1446620  52.1580510  36.6280800  14.4610870
  54.0957180  50.6943270  18.5441630  54.0526810  50.3236180  19.4256090
  54.2268190  51.6320840  18.6843450  57.7963210  52.2502860  14.1451350
  57.5554570  52.5177420  13.2581870  58.7365850  52.4208590  14.2002210
  60.0017630  38.7135550  17.9007860  59.9406520  39.3057380  18.6503270
  60.9418010  38.6061510  17.7558120  62.6392190  38.3705610  17.5400150
  63.2532600  38.6884900  16.8781230  63.1841750  37.8854200  18.1596010
  69.0567370  54.2697240  14.9461990  68.5625650  54.6666110  14.2289120
  68.4480660  53.6446450  15.3399270  53.1613450  37.0499870  17.6539210
  53.7096440  36.8687920  16.8905320  53.2268760  36.2593980  18.1895520
  53.9345210  53.6405520  15.6639410  53.3405530  53.5090220  16.4029450
  53.9269050  52.8043660  15.1981510  63.3800230  36.9337750  13.8669440
  62.5060070  37.2672860  13.6642370  63.2710980  36.4610930  14.6921310
  64.2872210  39.1408620  15.2511160  63.9585570  38.3260380  14.8712890
  65.2354510  39.0978430  15.1276850  66.7406820  54.9120660  12.2248730
  66.2809790  55.6636470  11.8506750  66.1119280  54.1927130  12.1663530
  53.5657440  51.0063900  14.6147450  52.8391500  50.3869190  14.5473400
  53.6266590  51.4004510  13.7445530  57.1702540  53.2208900  11.3996860
  57.6867560  52.6096260  10.8745120  57.8199920  53.7237680  11.8907870
  59.9098040  54.1117390  12.2265840  60.1975850  53.8571690  11.3498850
  60.4221260  53.5594750  12.8171410  61.1275050  37.8507590  12.8062350
  60.3446840  38.3253090  13.0859110  60.8337980  36.9462420  12.6975530
  65.6796120  38.5530690  10.8511440  66.1204210  38.4975790  10.0033040
  65.4103710  39.4688700  10.9221620  67.5434690  38.1845930   8.8620260
  67.4823090  37.2407150   8.7151280  68.3226720  38.2926020   9.4073720
  51.8487440  54.3238290   7.8244210  51.6809480  53.6908970   8.5226100
  50.9821950  54.5297690   7.4738400  52.4715460  38.1555070   5.3276070
  53.2294820  38.2683950   4.7540100  52.0092630  38.9924270   5.2819500
  59.0129270  40.2694340   8.3178380  58.2003780  39.8951230   7.9774260
  59.5170910  39.5139420   8.6199570  63.5154250  36.9336790   9.5561450
  64.1183620  37.5057000  10.0309970  62.7747240  37.4976230   9.3335350
  66.6588850  37.3358350   4.8301730  66.8539480  38.2341800   5.0969160
  65.8718720  37.1045430   5.3234680  53.4550140  53.0171520   5.2694350
  52.9297760  53.3979550   4.5656310  53.3794720  53.6422290   5.9904060
  54.8440610  38.6819120   3.8678040  55.3733370  37.8948920   3.7385990
  55.4768930  39.3610310   4.1013570  57.0378450  38.4194260   6.9223430
  56.4081190  37.7181570   7.0893560  56.4983590  39.1798390   6.7056590
  59.9770400  55.0333490  19.5934040  60.9037710  54.7977760  19.6370000
  59.9620830  55.8605490  19.1120070  68.2115460  54.5759060   6.5908290
  68.3867650  53.8896800   5.9469210  67.5137030  55.1006110   6.1984960
  57.1634010  37.6978240  19.3575920  56.8818280  38.2011840  18.5936740
  57.5453710  36.8999990  18.9918050  56.0543110  54.9653900   4.1443600
  56.7861930  54.6813180   3.5967490  56.3136780  54.7267180   5.0342980
  55.2157900  51.0818630   4.1489930  54.5866780  51.5503730   4.6975760
  55.3305730  50.2367850   4.5836120  63.7649470  37.1131820  19.9356390
  63.6514920  37.4326430  20.8307910  64.5819210  37.5144330  19.6393670
  66.5447960  54.2603350  19.4175080  67.3373280  53.7652580  19.2101040
  66.8381110  54.9393490  20.0250690  62.6707620  26.3580800  65.3965090
  62.5901670  25.4435410  65.1256800  62.2572040  26.8547870  64.6904800
  60.8025660  28.1359820  67.2774360  60.0267760  27.6560260  67.5672930
  61.4538590  27.4565470  67.1030520  54.8191490  28.4479630  68.1550120
  53.9876370  28.1928340  68.5546630  55.4272470  28.5190400  68.8908040
  64.8233090  32.5420010  66.0573490  64.3614620  31.7707250  66.3860660
  65.6358640  32.5686080  66.5625940  54.7992750  32.4819720  68.3508140
  55.1020790  31.5917460  68.1718360  55.5436340  33.0389940  68.1230390
  53.2283440  23.4081520  61.9392510  52.3400140  23.7497490  61.8372390
  53.5124630  23.2081840  61.0473340  51.1916450  26.0087170  67.8232210
  51.7632560  25.2409370  67.8235850  51.1917990  26.3075930  66.9138820
  61.0496400  34.8278020  65.6777480  60.4307840  35.2835520  65.1071920
  61.9048180  34.9829480  65.2767180  60.2434650  30.8117010  67.2844520
  60.1742930  29.8706950  67.1233650  61.0054510  30.9018420  67.8567090
  52.4341320  21.4171530  69.6101140  52.2544160  20.5197280  69.8903900
  52.0321400  21.9643400  70.2848090  61.2739820  23.6187390  67.5113450
  61.6504640  22.7459270  67.3987120  61.1759330  23.9546090  66.6203890
  55.4044830  21.9913020  62.9730890  55.5111580  22.8916750  63.2799650
  54.4937190  21.9430990  62.6825540  65.0563940  21.1137830  64.4441790
  65.8773560  20.6234400  64.4867270  65.0898020  21.7035490  65.1973630
  53.0527990  23.9132030  68.2183480  53.7338100  24.1770400  68.8370880
  52.7376040  23.0732900  68.5521490  57.2452560  24.9599390  67.3056070
  57.7530780  25.4580360  67.9461090  57.7765800  24.1834590  67.1295430
  69.3463490  23.1304580  71.0085420  68.6415660  23.5186290  70.4900530
  69.6121410  23.8254870  71.6106350  55.5288660  19.5997950  71.5719490
  55.5307100  20.1170340  70.7665390  54.6992970  19.1228130  71.5489420
  61.9159750  29.7117260  63.0709390  61.2977020  30.1766710  62.5072110
  62.4283000  30.4044740  63.4878900  56.7791510  29.2393130  69.7492990
  56.4460890  29.8662050  70.3914060  56.9558190  29.7655010  68.9694660
  65.2925420  23.0538210  67.2169330  64.5880990  23.3423100  67.7972440
  65.6537580  23.8638320  66.8568890  55.2103990  21.3107910  69.5789940
  55.5520800  22.1549960  69.2843810  54.2719800  21.4591650  69.6955280
  55.9910610  31.2073930  71.5642170  56.6084610  31.8825010  71.2826620
  55.1303730  31.6161910  71.4729670  51.2842950  30.3973790  60.4449020
  50.9070930  30.8860890  59.7133920  51.5416020  31.0699070  61.0755550
  66.9088200  32.6713340  69.4796810  66.2251720  33.3412450  69.4713480
  67.4482490  32.8693990  68.7141670  68.3612340  22.4993000  67.6078540
  67.4137250  22.5331980  67.7393970  68.6862330  23.3131950  67.9927900
  58.8931880  18.7990180  65.9034530  59.2006860  18.2437070  65.1870030
  57.9632580  18.9334640  65.7207520  64.4446940  34.5157470  68.1941990
  64.4574100  34.1119760  67.3264250  63.8922160  35.2904760  68.0903420
  65.7392360  31.2373690  63.2832160  65.6288690  30.2948020  63.4081580
  65.7360610  31.5989330  64.1694920  63.8432380  29.4187310  69.5224600
  64.2601170  29.2047420  68.6878060  64.5672200  29.6760100  70.0933220
  61.2812640  26.8639010  62.6394650  60.3541920  26.7976390  62.8683120
  61.4337460  27.8019140  62.5249890  61.2681720  23.1356010  59.6361810
  60.3285390  23.2969970  59.7214270  61.5864980  23.8541690  59.0897800
  67.7894480  27.8174530  69.6140840  66.9613110  27.8867620  69.1390970
  68.3844960  28.4028840  69.1456670  65.3109930  28.4259310  63.1429900
  64.6922350  28.0878860  62.4956200  65.2934380  27.7819070  63.8509090
  64.7536490  24.6043850  70.5595710  64.3407670  25.4297560  70.8135700
  64.0212440  24.0188890  70.3672070  56.8869280  27.3903750  65.4214380
  56.4826280  26.6781000  64.9260280  56.9732400  27.0456990  66.3102420
  57.3550980  31.0771310  67.5853590  57.0579270  30.4716780  66.9061370
  58.3050800  31.1148620  67.4742950  55.5997900  24.1646960  69.2013420
  56.1512490  24.2742300  68.4266670  56.1141410  24.5384560  69.9168650
  65.4436590  34.6503180  71.2476690  64.9667150  35.4575370  71.0549300
  64.7598380  33.9981510  71.4002900  56.4469410  30.8153000  74.2361390
  55.5497940  31.0392970  74.4834790  56.4722280  30.9387940  73.2872790
  63.4874630  27.6646120  60.1502650  63.9267910  26.8268550  60.0040470
  64.2003050  28.2975520  60.2366790  55.2740630  27.6866320  72.8118760
  55.1348400  28.5589120  73.1806160  54.3921990  27.3439130  72.6666700
  61.5970010  32.6042190  64.1183890  62.0365920  33.3466520  63.7039280
  61.5356900  32.8468760  65.0422850  57.0720980  33.6288020  75.0203910
  57.0436410  34.0330970  74.1532340  56.9085950  32.6998380  74.8575510
  67.0691770  18.9188930  58.4643690  66.7564430  19.0115760  59.3642760
  67.8304240  19.4969960  58.4141120  53.5873910  26.2848730  62.9221030
  53.4671510  27.0110820  62.3102300  53.2774800  25.5151640  62.4448940
  51.2259280  29.4563870  68.7289670  51.3039700  29.5912640  67.7845390
  51.8400960  28.7479760  68.9217790  52.4706910  31.1564060  65.1395850
  52.0634990  31.2978650  64.2849450  53.3619920  30.8724220  64.9367060
  68.4269050  31.6027970  73.4768090  68.5532110  31.3639850  72.5585270
  68.4690430  30.7712510  73.9490170  62.2885790  35.3055970  72.0462900
  62.8030460  35.2163980  72.8485330  61.4454870  35.6515670  72.3390810
  64.2640190  35.5911310  61.4746900  64.1041330  35.3014250  62.3728730
  64.0986900  34.8151440  60.9392130  56.7428570  35.3709840  63.2518520
  56.5671050  34.4545380  63.0386320  55.8884310  35.7297130  63.4916320
  63.9666320  33.0998870  60.0344900  63.2731480  33.0976160  59.3747180
  64.7089180  32.6758190  59.6039070  63.5316250  34.7261580  64.1093390
  63.9873200  33.9450960  64.4232010  63.8708770  35.4368400  64.6534570
  68.2793060  23.6560430  74.4417830  67.6637330  24.1640100  73.9133290
  67.9589480  22.7558760  74.3843770  51.2818800  30.4978040  71.2684130
  51.4449840  30.0283400  70.4503500  51.7471250  29.9901600  71.9332970
  56.0537570  19.6283800  66.3044700  55.6105720  20.4093340  65.9729220
  56.6122560  19.9513690  67.0115640  60.3407380  22.4952320  71.9080020
  59.8786750  22.7035340  72.7199960  59.9385490  21.6811670  71.6050690
  65.3411890  23.7161270  73.0376680  64.4905480  23.4167020  73.3585750
  65.1813680  23.9603280  72.1260500  62.4361600  25.2163020  75.1375470
  62.7615010  24.3826770  74.7977700  63.2241930  25.7391540  75.2853800
  59.1696390  19.2494500  61.1850530  58.5450570  19.2454370  61.9103840
  59.0826510  18.3825460  60.7886500  58.0913470  20.1731130  68.1634300
  58.3885800  21.0793960  68.0826320  58.6399030  19.6849910  67.5493870
  55.8451790  24.7517370  64.0325950  55.6192710  24.5354540  64.9372570
  55.0644320  25.1845830  63.6871920  63.0749550  24.7580740  62.6316600
  62.4758440  25.4816540  62.4480220  63.6229160  24.6957520  61.8493050
  58.2851000  25.6502950  74.6986220  58.1894600  24.7097680  74.5486620
  59.1282980  25.8718020  74.3034290  61.6814420  23.3944280  64.6619880
  62.0743990  23.7116480  63.8488570  62.0431270  22.5156160  64.7764400
  53.4161540  22.0616620  72.8520000  53.0224930  22.9091830  73.0592780
  52.7279940  21.4242990  73.0428640  50.7178590  19.9845080  66.8850080
  50.4291640  20.5547940  67.5975060  51.4624350  19.5049530  67.2481310
  50.9048820  23.9265200  58.0952800  50.8223490  24.8695960  58.2367790
  50.5531880  23.7840110  57.2165150  62.2669560  25.9850030  68.7570660
  61.5350680  26.4936840  69.1060760  61.8693900  25.1680010  68.4559440
  58.7046950  22.6604230  67.1623150  58.7083010  22.2194180  66.3127690
  59.5998070  22.9821560  67.2694970  54.5549330  22.5430720  66.1217360
  54.2149380  23.0205950  66.8784410  53.7926650  22.0895840  65.7618460
  58.7667100  23.6616310  60.1529910  58.8879920  23.6202790  61.1015730
  58.3815610  24.5240460  59.9976640  62.7295470  21.4383710  68.1693600
  62.7468210  21.8892360  69.0135450  62.4811050  20.5389350  68.3827040
  57.7788600  25.9717450  59.5513210  57.2105500  25.5235700  58.9249120
  58.4877600  26.3310230  59.0178360  66.1566220  18.8515890  74.0079980
  66.4811990  18.1205550  74.5337960  66.1922730  18.5329530  73.1060970
  52.8557780  29.8729470  73.4279940  52.4712570  29.2323140  74.0262900
  53.1669970  30.5765590  73.9974670  59.0054920  26.7206010  68.9088560
  59.3725050  26.2464580  69.6549900  58.8159980  27.5947580  69.2496900
  51.8695410  21.4649700  65.0382030  51.5842330  21.1005370  65.8760650
  51.8074270  20.7330160  64.4245170  56.7954290  25.7614650  71.2272770
  56.4911360  26.6406630  71.4523130  57.7500750  25.8214440  71.2630210
  55.3236080  29.9675640  61.8239620  54.5498340  29.4273260  61.6638340
  56.0530710  29.4482250  61.4857380  66.0824060  28.9641000  67.6166010
  66.8023180  29.4596290  67.2262120  65.8805880  28.2858890  66.9719880
  61.5434000  20.3578960  61.7595400  60.7298610  19.8592130  61.6840710
  61.3495950  21.1977210  61.3431750  61.4642860  29.0350060  73.5035010
  61.3980170  28.1145730  73.2492600  60.8348000  29.1325500  74.2179650
  64.2582390  24.7298610  60.0557560  65.1462010  25.0415840  59.8808900
  64.2287480  23.8570860  59.6638140  55.3673480  29.6356020  65.4618430
  55.8852150  28.8324280  65.4075320  54.9157500  29.5735160  66.3035260
  60.2542980  30.9022300  60.7345730  60.5958680  31.6464530  60.2389050
  59.4255690  31.2153420  61.0970560  52.8518020  26.6017390  72.3744130
  52.4932960  27.2671240  72.9617470  52.5572580  25.7700940  72.7456750
  56.0531140  27.0601630  75.2583680  55.7531280  27.2058810  74.3611500
  56.8242380  26.5006920  75.1657070  61.3959590  31.8570630  73.2538810
  61.4104130  30.9251590  73.0357720  60.6884690  31.9430390  73.8928580
  66.5296660  26.0410450  59.5237420  66.4460380  26.4724670  58.6733860
  67.2490850  26.5008800  59.9564240  67.6070800  28.4977970  72.6007390
  66.8818990  29.0906750  72.4036780  68.1346260  28.4901510  71.8020760
  67.5583910  32.8952710  62.2519550  66.9160070  32.2408330  62.5263270
  67.1714570  33.3007800  61.4760220  63.1370390  30.2238140  66.0991240
  63.4894210  29.6266270  65.4392610  62.2532720  29.8982370  66.2699490
  59.2233670  30.9835830  63.5061650  59.9104800  31.5305040  63.8869240
  58.4366090  31.5276560  63.5411260  51.3626070  26.6008650  58.9978730
  52.2320920  26.8833450  59.2814650  50.8716390  27.4144520  58.8827540
  58.5260880  27.9881860  63.1187010  58.9823660  28.7987110  63.3447200
  58.1749090  27.6705000  63.9505500  60.8293490  33.4988200  70.3479310
  61.4735710  33.7047580  71.0252730  61.1922930  32.7376600  69.8950160
  54.4272660  18.3319510  63.5909530  54.2987290  18.3237410  64.5394450
  53.6034680  18.6702600  63.2400540  62.1025570  31.5020550  69.0656760
  62.7447800  30.8013710  69.1788930  62.6274920  32.2818990  68.8853650
  65.9481290  31.7869170  58.7895900  65.7218870  31.0699610  59.3820540
  65.5577490  31.5381610  57.9517650  63.8763190  32.3015450  72.2692820
  64.2119430  32.8882140  72.9470740  62.9563530  32.1708160  72.4990610
  51.7297320  35.8136030  59.5640360  52.0894960  36.4125370  58.9097630
  51.5889660  36.3595920  60.3375390  51.4266590  20.0910630  73.0516230
  50.7125110  20.2907550  73.6568840  51.8461630  19.3150200  73.4231030
  65.5297540  29.7041110  60.4510060  65.2419240  30.1653800  61.2387940
  66.3249710  29.2438880  60.7194280  51.7139180  34.0790890  74.0382760
  51.8230300  33.1385630  73.8978150  51.0619740  34.3445640  73.3896490
  59.7051770  32.3506780  75.4380880  59.3848640  31.6316020  75.9826570
  59.0310130  33.0261850  75.5116940  57.7465940  33.1967230  60.3814030
  57.7376040  33.9296920  59.7658540  56.8264300  32.9498810  60.4740990
  53.3472580  28.4182120  61.1260790  52.7400530  29.1581020  61.1356090
  53.8221930  28.5081480  60.2998990  62.9205370  22.5832940  70.8017680
  63.2886190  21.7628150  71.1297250  62.0603570  22.6434830  71.2173330
  66.2867400  21.5389880  61.6105240  65.6580560  21.6435550  60.8963470
  65.7919320  21.7586660  62.3999120  60.7325540  33.2595470  59.0439220
  60.8337520  33.0559460  58.1141200  59.8327280  33.0053750  59.2487000
  58.2551430  23.8175830  63.0263120  57.5467580  24.2862170  63.4676730
  58.5395910  23.1597840  63.6608310  59.8807360  25.2372530  71.0255650
  60.3792610  25.7118350  71.6907500  60.0230310  24.3136050  71.2325680
  62.2866860  20.5426490  64.4658910  62.1634640  20.5612620  63.5168420
  63.2351420  20.5905430  64.5857310  59.3743650  35.7781790  63.7386890
  59.6285150  35.7403180  62.8166260  58.4256130  35.6515120  63.7315140
  56.4586450  22.1260910  60.4013830  57.3076980  22.5631060  60.3354020
  56.0917720  22.4381170  61.2285890  67.0874220  21.4540490  71.8684040
  66.5847820  22.1945890  72.2077850  67.9030880  21.8424490  71.5520830
  65.3796230  26.6973670  65.3145400  64.4386370  26.7123900  65.4893090
  65.6940300  25.9109630  65.7605700  55.3577870  28.3793270  58.8749360
  56.1241140  28.2674630  59.4374790  55.4352560  27.6831240  58.2226130
  54.0524630  25.8118340  59.5582250  54.1328220  24.8645850  59.6699650
  54.9444380  26.1425220  59.6642910  67.3821810  33.8682520  66.9899660
  67.5069230  34.6913690  67.4623470  68.2487370  33.6573250  66.6423810
  54.8539340  35.9613730  66.6616790  55.5901820  35.4129190  66.9325360
  55.2380260  36.8269740  66.5222780  51.7384820  32.0287300  62.5358300
  50.8124600  32.2708440  62.5263710  52.2041250  32.8561560  62.4143050
  57.9641650  35.1344040  58.4842360  58.7570260  35.4232870  58.0324150
  57.4446000  34.7036210  57.8054840  64.1262620  34.9819960  74.4087190
  65.0784370  34.8977980  74.3587430  63.9790840  35.6461670  75.0820980
  67.0171820  34.3614170  59.9079100  66.7313330  33.9479310  59.0933280
  66.8191370  35.2901880  59.7879620  51.5795430  27.6333260  74.7938420
  52.0834450  27.0540540  75.3654650  50.8402850  27.9173490  75.3314790
  58.4819050  30.3547450  58.3484710  58.3769690  29.7399800  59.0746090
  58.3143270  29.8313340  57.5647720  58.6333370  29.0404250  74.3273940
  57.8679040  29.6089250  74.2428610  58.8149330  28.7480460  73.4342170
  61.7221780  29.4167480  58.9526700  61.1731880  29.8636780  59.5969440
  62.3441040  28.9116730  59.4764370  65.7756720  30.7709580  74.8848960
  66.5166190  31.1085340  74.3816420  65.0129400  30.9401640  74.3318730
  57.3896900  28.3758400  60.8492000  57.8113320  28.2098270  61.6923390
  57.5147740  27.5658630  60.3547140  55.5524320  24.3554950  73.6562980
  55.0220780  23.8645900  73.0286320  56.2212390  24.7839150  73.1220910
  59.9024540  27.3996010  58.0969100  60.4230200  26.6845030  57.7310250
  60.5492940  28.0381880  58.3969610  64.4502380  28.8224410  73.4204170
  64.8643400  28.9769490  74.2694590  63.5153380  28.9479630  73.5829950
  64.9224550  26.1620570  75.4243320  65.5045320  25.4072890  75.3363800
  65.0986320  26.6928010  74.6474800  56.0396620  21.3217320  73.7360270
  55.9453490  20.7038070  73.0111140  55.4594010  22.0483610  73.5090180
  58.8058060  19.8790560  70.7687660  58.3575360  19.9014820  69.9233210
  58.1723260  19.4809580  71.3657960  59.2117610  28.7744890  71.3900100
  59.6305720  29.6177620  71.2176340  58.2926240  28.9116930  71.1606880
  61.5481510  26.5061070  72.7737940  61.6677720  25.9102210  73.5132780
  62.4075510  26.5430760  72.3539240  63.8869410  27.0598260  71.3500450
  63.3604630  27.5840880  70.7465590  64.2300750  27.6925650  71.9810180
  56.2855800  24.4491630  57.7950160  56.0844860  23.5858990  58.1563500
  56.1147850  24.3624990  56.8571760  57.0625030  35.0797900  72.5057830
  56.5246120  35.8043960  72.1866530  57.3158990  34.6028240  71.7155170
  58.3150280  23.0482420  74.0313760  58.9049970  22.7398270  74.7191580
  57.4970520  22.5762170  74.1873660  63.1343710  22.6648230  74.2646780
  62.4459230  22.0029770  74.1996770  63.8549730  22.2186500  74.7095240
  63.7644110  19.2599860  60.3237040  64.0446400  18.4167760  60.6796460
  62.9909840  19.4922970  60.8375790  55.0838600  21.5492250  57.7828040
  55.3864500  21.5559680  56.8747190  55.8233190  21.1990110  58.2795700
  59.9187240  36.3149110  72.7644480  59.8445940  37.2184250  73.0716850
  59.0166080  35.9961010  72.7366550  58.3023530  20.4926870  58.7684240
  57.9545530  19.8150860  58.1886690  58.5036300  20.0316380  59.5827630
  60.4672570  35.4807620  60.3870840  61.3623360  35.8192590  60.4089600
  60.4990200  34.7587030  59.7595120  54.1068730  30.8534670  58.6157840
  54.5443600  31.3964340  59.2715420  54.5916460  30.0281620  58.6254180
  51.3214530  33.6423700  66.0678100  51.6517540  32.7744760  65.8356740
  51.7505530  33.8482220  66.8983060  55.9176450  31.9732710  63.7280070
  55.6171990  31.8497680  64.6283980  55.8113940  31.1141300  63.3195800
  51.8104740  34.5094290  68.8059730  51.3735730  34.6895090  69.6383880
  52.3782420  35.2668910  68.6641450  67.4466920  34.0111290  73.0937040
  66.8468910  34.0703850  72.3500960  67.5760820  33.0716270  73.2233890
  68.6868370  31.7529110  58.4306750  67.8561330  31.8205760  58.9013980
  68.8640200  32.6433230  58.1273610  68.1424830  28.4976590  60.9340950
  68.9043740  29.0673240  61.0400640  68.1579200  27.9303790  61.7049260
  51.6429170  27.0214520  65.1648610  50.9878010  26.7526160  64.5208310
  52.4807120  26.9119000  64.7150590  69.1484800  29.3526690  65.7782880
  69.5193630  28.5694010  65.3718850  69.7886730  30.0415790  65.6000180
  66.1318560  30.7363270  71.1913200  65.3178400  31.1660430  71.4538990
  66.5392760  31.3481680  70.5782250  68.1944000  28.7910960  58.0913470
  68.4692840  29.6989840  57.9632690  68.0054740  28.7273490  59.0275460
  64.5919610  21.8155810  59.3867100  65.0104490  21.6286790  58.5463760
  64.2855670  20.9634860  59.6970030  68.0909340  26.7279950  63.0842900
  67.7152940  25.9607880  62.6524190  67.3612460  27.1102650  63.5717830
  52.6805100  27.4067090  69.7051950  53.0478140  27.3194490  70.5847970
  52.1115920  26.6433640  69.6058810  67.4808960  25.8751470  72.7182420
  67.2495050  25.6464220  71.8180370  67.7413510  26.7951020  72.6727310
  52.2321100  24.3176180  73.6110370  51.3377150  24.2842940  73.9504080
  52.7718650  24.5162970  74.3761620  65.9197030  21.1007900  75.4962120
  66.7967210  21.1091300  75.8796120  65.9317870  20.3638740  74.8854470
  50.8567250  24.2313450  61.1073940  49.9531330  24.4943650  60.9325600
  51.3407870  24.5024620  60.3273900  67.3660300  24.9537440  66.3850140
  67.8897780  24.4600090  65.7540310  67.9519720  25.0887800  67.1297710
  67.5450020  25.0377310  69.9069690  66.5952730  25.0040850  70.0214680
  67.7263030  25.9477420  69.6719460  53.3994460  23.2878990  59.0168320
  54.1086160  22.8662210  58.5315600  52.6834400  23.3554220  58.3851670
  53.0468620  19.3418320  58.0570970  53.7696750  19.8827260  58.3752190
  53.3193140  19.0681740  57.1812510  66.8560270  24.2110790  62.3242550
  67.3519390  23.9781660  63.1091430  66.6576340  23.3722630  61.9080190
  52.7360810  18.5924510  67.9593590  53.3837000  18.0421890  67.5188750
  53.1562650  18.8467660  68.7809400  68.2847430  22.8471740  64.8580230
  68.1746710  22.6927780  65.7962500  69.0455020  22.3192680  64.6155640
  66.6313150  18.7865870  71.3163230  67.2685370  19.4000010  71.6822420
  66.7788040  18.8226530  70.3712460  69.1737700  20.6779660  58.0986370
  70.0987010  20.5460840  57.8904660  69.1513490  20.7572480  59.0522820
  69.2476190  21.4490320  60.7243080  68.4527690  21.3835440  61.2535990
  69.4519470  22.3840960  60.7128430  66.1894610  35.4881870  64.7181470
  66.7853680  35.1666440  64.0415890  66.4472760  35.0153690  65.5094740
  52.4892810  18.7480180  70.7018910  52.1407630  19.2044000  71.4677090
  52.1580510  17.8537310  70.7841340  54.0957180  31.9199780  74.8672100
  54.0526810  31.5492690  75.7486560  54.2268190  32.8577350  75.0073920
  57.7963210  33.4759370  70.4681820  57.5554570  33.7433930  69.5812340
  58.7365850  33.6465100  70.5232680  60.0017630  19.9392060  74.2238330
  59.9406520  20.5313890  74.9733740  60.9418010  19.8318020  74.0788590
  62.6392190  19.5962120  73.8630620  63.2532600  19.9141410  73.2011700
  63.1841750  19.1110710  74.4826480  69.0567370  35.4953750  71.2692460
  68.5625650  35.8922620  70.5519590  68.4480660  34.8702960  71.6629740
  53.1613450  18.2756380  73.9769680  53.7096440  18.0944430  73.2135790
  53.2268760  17.4850490  74.5125990  53.9345210  34.8662030  71.9869880
  53.3405530  34.7346730  72.7259920  53.9269050  34.0300170  71.5211980
  63.3800230  18.1594260  70.1899910  62.5060070  18.4929370  69.9872840
  63.2710980  17.6867440  71.0151780  64.2872210  20.3665130  71.5741630
  63.9585570  19.5516890  71.1943360  65.2354510  20.3234940  71.4507320
  66.7406820  36.1377170  68.5479200  66.2809790  36.8892980  68.1737220
  66.1119280  35.4183640  68.4894000  53.5657440  32.2320410  70.9377920
  52.8391500  31.6125700  70.8703870  53.6266590  32.6261020  70.0676000
  57.1702540  34.4465410  67.7227330  57.6867560  33.8352770  67.1975590
  57.8199920  34.9494190  68.2138340  59.9098040  35.3373900  68.5496310
  60.1975850  35.0828200  67.6729320  60.4221260  34.7851260  69.1401880
  61.1275050  19.0764100  69.1292820  60.3446840  19.5509600  69.4089580
  60.8337980  18.1718930  69.0206000  65.6796120  19.7787200  67.1741910
  66.1204210  19.7232300  66.3263510  65.4103710  20.6945210  67.2452090
  67.5434690  19.4102440  65.1850730  67.4823090  18.4663660  65.0381750
  68.3226720  19.5182530  65.7304190  51.8487440  35.5494800  64.1474680
  51.6809480  34.9165480  64.8456570  50.9821950  35.7554200  63.7968870
  52.4715460  19.3811580  61.6506540  53.2294820  19.4940460  61.0770570
  52.0092630  20.2180780  61.6049970  59.0129270  21.4950850  64.6408850
  58.2003780  21.1207740  64.3004730  59.5170910  20.7395930  64.9430040
  63.5154250  18.1593300  65.8791920  64.1183620  18.7313510  66.3540440
  62.7747240  18.7232740  65.6565820  66.6588850  18.5614860  61.1532200
  66.8539480  19.4598310  61.4199630  65.8718720  18.3301940  61.6465150
  53.4550140  34.2428030  61.5924820  52.9297760  34.6236060  60.8886780
  53.3794720  34.8678800  62.3134530  54.8440610  19.9075630  60.1908510
  55.3733370  19.1205430  60.0616460  55.4768930  20.5866820  60.4244040
  57.0378450  19.6450770  63.2453900  56.4081190  18.9438080  63.4124030
  56.4983590  20.4054900  63.0287060  59.9770400  36.2590000  75.9164510
  60.9037710  36.0234270  75.9600470  59.9620830  37.0862000  75.4350540
  68.2115460  35.8015570  62.9138760  68.3867650  35.1153310  62.2699680
  67.5137030  36.3262620  62.5215430  57.1634010  18.9234750  75.6806390
  56.8818280  19.4268350  74.9167210  57.5453710  18.1256500  75.3148520
  56.0543110  36.1910410  60.4674070  56.7861930  35.9069690  59.9197960
  56.3136780  35.9523690  61.3573450  55.2157900  32.3075140  60.4720400
  54.5866780  32.7760240  61.0206230  55.3305730  31.4624360  60.9066590
  62.6707620  26.3580800  46.6221600  62.5901670  25.4435410  46.3513310
  62.2572040  26.8547870  45.9161310  60.8025660  28.1359820  48.5030870
  60.0267760  27.6560260  48.7929440  61.4538590  27.4565470  48.3287030
  54.8191490  28.4479630  49.3806630  53.9876370  28.1928340  49.7803140
  55.4272470  28.5190400  50.1164550  64.8233090  32.5420010  47.2830000
  64.3614620  31.7707250  47.6117170  65.6358640  32.5686080  47.7882450
  54.7992750  32.4819720  49.5764650  55.1020790  31.5917460  49.3974870
  55.5436340  33.0389940  49.3486900  53.2283440  23.4081520  43.1649020
  52.3400140  23.7497490  43.0628900  53.5124630  23.2081840  42.2729850
  51.1916450  26.0087170  49.0488720  51.7632560  25.2409370  49.0492360
  51.1917990  26.3075930  48.1395330  61.0496400  34.8278020  46.9033990
  60.4307840  35.2835520  46.3328430  61.9048180  34.9829480  46.5023690
  60.2434650  30.8117010  48.5101030  60.1742930  29.8706950  48.3490160
  61.0054510  30.9018420  49.0823600  52.4341320  21.4171530  50.8357650
  52.2544160  20.5197280  51.1160410  52.0321400  21.9643400  51.5104600
  61.2739820  23.6187390  48.7369960  61.6504640  22.7459270  48.6243630
  61.1759330  23.9546090  47.8460400  55.4044830  21.9913020  44.1987400
  55.5111580  22.8916750  44.5056160  54.4937190  21.9430990  43.9082050
  65.0563940  21.1137830  45.6698300  65.8773560  20.6234400  45.7123780
  65.0898020  21.7035490  46.4230140  53.0527990  23.9132030  49.4439990
  53.7338100  24.1770400  50.0627390  52.7376040  23.0732900  49.7778000
  57.2452560  24.9599390  48.5312580  57.7530780  25.4580360  49.1717600
  57.7765800  24.1834590  48.3551940  69.3463490  23.1304580  52.2341930
  68.6415660  23.5186290  51.7157040  69.6121410  23.8254870  52.8362860
  55.5288660  19.5997950  52.7976000  55.5307100  20.1170340  51.9921900
  54.6992970  19.1228130  52.7745930  61.9159750  29.7117260  44.2965900
  61.2977020  30.1766710  43.7328620  62.4283000  30.4044740  44.7135410
  56.7791510  29.2393130  50.9749500  56.4460890  29.8662050  51.6170570
  56.9558190  29.7655010  50.1951170  65.2925420  23.0538210  48.4425840
  64.5880990  23.3423100  49.0228950  65.6537580  23.8638320  48.0825400
  55.2103990  21.3107910  50.8046450  55.5520800  22.1549960  50.5100320
  54.2719800  21.4591650  50.9211790  55.9910610  31.2073930  52.7898680
  56.6084610  31.8825010  52.5083130  55.1303730  31.6161910  52.6986180
  51.2842950  30.3973790  41.6705530  50.9070930  30.8860890  40.9390430
  51.5416020  31.0699070  42.3012060  66.9088200  32.6713340  50.7053320
  66.2251720  33.3412450  50.6969990  67.4482490  32.8693990  49.9398180
  68.3612340  22.4993000  48.8335050  67.4137250  22.5331980  48.9650480
  68.6862330  23.3131950  49.2184410  58.8931880  18.7990180  47.1291040
  59.2006860  18.2437070  46.4126540  57.9632580  18.9334640  46.9464030
  64.4446940  34.5157470  49.4198500  64.4574100  34.1119760  48.5520760
  63.8922160  35.2904760  49.3159930  65.7392360  31.2373690  44.5088670
  65.6288690  30.2948020  44.6338090  65.7360610  31.5989330  45.3951430
  63.8432380  29.4187310  50.7481110  64.2601170  29.2047420  49.9134570
  64.5672200  29.6760100  51.3189730  61.2812640  26.8639010  43.8651160
  60.3541920  26.7976390  44.0939630  61.4337460  27.8019140  43.7506400
  61.2681720  23.1356010  40.8618320  60.3285390  23.2969970  40.9470780
  61.5864980  23.8541690  40.3154310  67.7894480  27.8174530  50.8397350
  66.9613110  27.8867620  50.3647480  68.3844960  28.4028840  50.3713180
  65.3109930  28.4259310  44.3686410  64.6922350  28.0878860  43.7212710
  65.2934380  27.7819070  45.0765600  64.7536490  24.6043850  51.7852220
  64.3407670  25.4297560  52.0392210  64.0212440  24.0188890  51.5928580
  56.8869280  27.3903750  46.6470890  56.4826280  26.6781000  46.1516790
  56.9732400  27.0456990  47.5358930  57.3550980  31.0771310  48.8110100
  57.0579270  30.4716780  48.1317880  58.3050800  31.1148620  48.6999460
  55.5997900  24.1646960  50.4269930  56.1512490  24.2742300  49.6523180
  56.1141410  24.5384560  51.1425160  65.4436590  34.6503180  52.4733200
  64.9667150  35.4575370  52.2805810  64.7598380  33.9981510  52.6259410
  56.4469410  30.8153000  55.4617900  55.5497940  31.0392970  55.7091300
  56.4722280  30.9387940  54.5129300  63.4874630  27.6646120  41.3759160
  63.9267910  26.8268550  41.2296980  64.2003050  28.2975520  41.4623300
  55.2740630  27.6866320  54.0375270  55.1348400  28.5589120  54.4062670
  54.3921990  27.3439130  53.8923210  61.5970010  32.6042190  45.3440400
  62.0365920  33.3466520  44.9295790  61.5356900  32.8468760  46.2679360
  57.0720980  33.6288020  56.2460420  57.0436410  34.0330970  55.3788850
  56.9085950  32.6998380  56.0832020  67.0691770  18.9188930  39.6900200
  66.7564430  19.0115760  40.5899270  67.8304240  19.4969960  39.6397630
  53.5873910  26.2848730  44.1477540  53.4671510  27.0110820  43.5358810
  53.2774800  25.5151640  43.6705450  69.0235800  34.4115120  57.5424590
  69.4995520  34.8898010  58.2213670  69.6442960  34.3432610  56.8170090
  51.2259280  29.4563870  49.9546180  51.3039700  29.5912640  49.0101900
  51.8400960  28.7479760  50.1474300  52.4706910  31.1564060  46.3652360
  52.0634990  31.2978650  45.5105960  53.3619920  30.8724220  46.1623570
  68.4269050  31.6027970  54.7024600  68.5532110  31.3639850  53.7841780
  68.4690430  30.7712510  55.1746680  62.2885790  35.3055970  53.2719410
  62.8030460  35.2163980  54.0741840  61.4454870  35.6515670  53.5647320
  56.7428570  35.3709840  44.4775030  56.5671050  34.4545380  44.2642830
  55.8884310  35.7297130  44.7172830  68.2793060  23.6560430  55.6674340
  67.6637330  24.1640100  55.1389800  67.9589480  22.7558760  55.6100280
  51.2818800  30.4978040  52.4940640  51.4449840  30.0283400  51.6760010
  51.7471250  29.9901600  53.1589480  56.0537570  19.6283800  47.5301210
  55.6105720  20.4093340  47.1985730  56.6122560  19.9513690  48.2372150
  60.3407380  22.4952320  53.1336530  59.8786750  22.7035340  53.9456470
  59.9385490  21.6811670  52.8307200  65.3411890  23.7161270  54.2633190
  64.4905480  23.4167020  54.5842260  65.1813680  23.9603280  53.3517010
  62.4361600  25.2163020  56.3631980  62.7615010  24.3826770  56.0234210
  63.2241930  25.7391540  56.5110310  59.1696390  19.2494500  42.4107040
  58.5450570  19.2454370  43.1360350  59.0826510  18.3825460  42.0143010
  58.0913470  20.1731130  49.3890810  58.3885800  21.0793960  49.3082830
  58.6399030  19.6849910  48.7750380  55.8451790  24.7517370  45.2582460
  55.6192710  24.5354540  46.1629080  55.0644320  25.1845830  44.9128430
  63.0749550  24.7580740  43.8573110  62.4758440  25.4816540  43.6736730
  63.6229160  24.6957520  43.0749560  58.2851000  25.6502950  55.9242730
  58.1894600  24.7097680  55.7743130  59.1282980  25.8718020  55.5290800
  61.6814420  23.3944280  45.8876390  62.0743990  23.7116480  45.0745080
  62.0431270  22.5156160  46.0020910  53.4161540  22.0616620  54.0776510
  53.0224930  22.9091830  54.2849290  52.7279940  21.4242990  54.2685150
  59.9906590  22.1451590  57.1473250  59.3004910  21.9523790  57.7819340
  60.7338890  22.4286230  57.6797550  50.7178590  19.9845080  48.1106590
  50.4291640  20.5547940  48.8231570  51.4624350  19.5049530  48.4737820
  50.9048820  23.9265200  39.3209310  50.8223490  24.8695960  39.4624300
  50.5531880  23.7840110  38.4421660  62.2669560  25.9850030  49.9827170
  61.5350680  26.4936840  50.3317270  61.8693900  25.1680010  49.6815950
  58.7046950  22.6604230  48.3879660  58.7083010  22.2194180  47.5384200
  59.5998070  22.9821560  48.4951480  54.5549330  22.5430720  47.3473870
  54.2149380  23.0205950  48.1040920  53.7926650  22.0895840  46.9874970
  58.7667100  23.6616310  41.3786420  58.8879920  23.6202790  42.3272240
  58.3815610  24.5240460  41.2233150  62.7295470  21.4383710  49.3950110
  62.7468210  21.8892360  50.2391960  62.4811050  20.5389350  49.6083550
  57.7788600  25.9717450  40.7769720  57.2105500  25.5235700  40.1505630
  58.4877600  26.3310230  40.2434870  66.1566220  18.8515890  55.2336490
  66.4811990  18.1205550  55.7594470  66.1922730  18.5329530  54.3317480
  52.8557780  29.8729470  54.6536450  52.4712570  29.2323140  55.2519410
  53.1669970  30.5765590  55.2231180  59.0054920  26.7206010  50.1345070
  59.3725050  26.2464580  50.8806410  58.8159980  27.5947580  50.4753410
  51.8695410  21.4649700  46.2638540  51.5842330  21.1005370  47.1017160
  51.8074270  20.7330160  45.6501680  56.7954290  25.7614650  52.4529280
  56.4911360  26.6406630  52.6779640  57.7500750  25.8214440  52.4886720
  55.3236080  29.9675640  43.0496130  54.5498340  29.4273260  42.8894850
  56.0530710  29.4482250  42.7113890  66.0824060  28.9641000  48.8422520
  66.8023180  29.4596290  48.4518630  65.8805880  28.2858890  48.1976390
  61.5434000  20.3578960  42.9851910  60.7298610  19.8592130  42.9097220
  61.3495950  21.1977210  42.5688260  61.4642860  29.0350060  54.7291520
  61.3980170  28.1145730  54.4749110  60.8348000  29.1325500  55.4436160
  64.2582390  24.7298610  41.2814070  65.1462010  25.0415840  41.1065410
  64.2287480  23.8570860  40.8894650  55.3673480  29.6356020  46.6874940
  55.8852150  28.8324280  46.6331830  54.9157500  29.5735160  47.5291770
  60.2542980  30.9022300  41.9602240  60.5958680  31.6464530  41.4645560
  59.4255690  31.2153420  42.3227070  52.8518020  26.6017390  53.6000640
  52.4932960  27.2671240  54.1873980  52.5572580  25.7700940  53.9713260
  56.0531140  27.0601630  56.4840190  55.7531280  27.2058810  55.5868010
  56.8242380  26.5006920  56.3913580  61.3959590  31.8570630  54.4795320
  61.4104130  30.9251590  54.2614230  60.6884690  31.9430390  55.1185090
  66.5296660  26.0410450  40.7493930  66.4460380  26.4724670  39.8990370
  67.2490850  26.5008800  41.1820750  67.6070800  28.4977970  53.8263900
  66.8818990  29.0906750  53.6293290  68.1346260  28.4901510  53.0277270
  67.5583910  32.8952710  43.4776060  66.9160070  32.2408330  43.7519780
  67.1714570  33.3007800  42.7016730  63.1370390  30.2238140  47.3247750
  63.4894210  29.6266270  46.6649120  62.2532720  29.8982370  47.4956000
  59.2233670  30.9835830  44.7318160  59.9104800  31.5305040  45.1125750
  58.4366090  31.5276560  44.7667770  51.3626070  26.6008650  40.2235240
  52.2320920  26.8833450  40.5071160  50.8716390  27.4144520  40.1084050
  58.5260880  27.9881860  44.3443520  58.9823660  28.7987110  44.5703710
  58.1749090  27.6705000  45.1762010  60.8293490  33.4988200  51.5735820
  61.4735710  33.7047580  52.2509240  61.1922930  32.7376600  51.1206670
  54.4272660  18.3319510  44.8166040  54.2987290  18.3237410  45.7650960
  53.6034680  18.6702600  44.4657050  62.1025570  31.5020550  50.2913270
  62.7447800  30.8013710  50.4045440  62.6274920  32.2818990  50.1110160
  63.8763190  32.3015450  53.4949330  64.2119430  32.8882140  54.1727250
  62.9563530  32.1708160  53.7247120  51.7297320  35.8136030  40.7896870
  52.0894960  36.4125370  40.1354140  51.5889660  36.3595920  41.5631900
  51.4266590  20.0910630  54.2772740  50.7125110  20.2907550  54.8825350
  51.8461630  19.3150200  54.6487540  65.5297540  29.7041110  41.6766570
  65.2419240  30.1653800  42.4644450  66.3249710  29.2438880  41.9450790
  51.7139180  34.0790890  55.2639270  51.8230300  33.1385630  55.1234660
  51.0619740  34.3445640  54.6153000  59.7051770  32.3506780  56.6637390
  59.3848640  31.6316020  57.2083080  59.0310130  33.0261850  56.7373450
  57.7465940  33.1967230  41.6070540  57.7376040  33.9296920  40.9915050
  56.8264300  32.9498810  41.6997500  53.3472580  28.4182120  42.3517300
  52.7400530  29.1581020  42.3612600  53.8221930  28.5081480  41.5255500
  62.9205370  22.5832940  52.0274190  63.2886190  21.7628150  52.3553760
  62.0603570  22.6434830  52.4429840  66.2867400  21.5389880  42.8361750
  65.6580560  21.6435550  42.1219980  65.7919320  21.7586660  43.6255630
  60.7325540  33.2595470  40.2695730  60.8337520  33.0559460  39.3397710
  59.8327280  33.0053750  40.4743510  58.2551430  23.8175830  44.2519630
  57.5467580  24.2862170  44.6933240  58.5395910  23.1597840  44.8864820
  59.8807360  25.2372530  52.2512160  60.3792610  25.7118350  52.9164010
  60.0230310  24.3136050  52.4582190  62.2866860  20.5426490  45.6915420
  62.1634640  20.5612620  44.7424930  63.2351420  20.5905430  45.8113820
  59.3743650  35.7781790  44.9643400  59.6285150  35.7403180  44.0422770
  58.4256130  35.6515120  44.9571650  56.4586450  22.1260910  41.6270340
  57.3076980  22.5631060  41.5610530  56.0917720  22.4381170  42.4542400
  67.0874220  21.4540490  53.0940550  66.5847820  22.1945890  53.4334360
  67.9030880  21.8424490  52.7777340  65.3796230  26.6973670  46.5401910
  64.4386370  26.7123900  46.7149600  65.6940300  25.9109630  46.9862210
  55.3577870  28.3793270  40.1005870  56.1241140  28.2674630  40.6631300
  55.4352560  27.6831240  39.4482640  54.0524630  25.8118340  40.7838760
  54.1328220  24.8645850  40.8956160  54.9444380  26.1425220  40.8899420
  54.8539340  35.9613730  47.8873300  55.5901820  35.4129190  48.1581870
  55.2380260  36.8269740  47.7479290  51.7384820  32.0287300  43.7614810
  50.8124600  32.2708440  43.7520220  52.2041250  32.8561560  43.6399560
  53.8597620  35.1459800  57.0758880  54.6610350  35.4671850  57.4894280
  53.3449440  34.7855380  57.7978790  57.9641650  35.1344040  39.7098870
  58.7570260  35.4232870  39.2580660  57.4446000  34.7036210  39.0311350
  62.6962250  31.2539670  57.0234290  62.0900410  31.2771270  56.2830040
  62.3916360  30.5222710  57.5601540  64.1262620  34.9819960  55.6343700
  65.0784370  34.8977980  55.5843940  63.9790840  35.6461670  56.3077490
  51.5795430  27.6333260  56.0194930  52.0834450  27.0540540  56.5911160
  50.8402850  27.9173490  56.5571300  58.4819050  30.3547450  39.5741220
  58.3769690  29.7399800  40.3002600  58.3143270  29.8313340  38.7904230
  58.6333370  29.0404250  55.5530450  57.8679040  29.6089250  55.4685120
  58.8149330  28.7480460  54.6598680  61.7221780  29.4167480  40.1783210
  61.1731880  29.8636780  40.8225950  62.3441040  28.9116730  40.7020880
  65.7756720  30.7709580  56.1105470  66.5166190  31.1085340  55.6072930
  65.0129400  30.9401640  55.5575240  53.6118510  25.7762850  56.9145000
  53.6523850  25.4776720  57.8230230  54.4664010  26.1770460  56.7552520
  57.3896900  28.3758400  42.0748510  57.8113320  28.2098270  42.9179900
  57.5147740  27.5658630  41.5803650  55.5524320  24.3554950  54.8819490
  55.0220780  23.8645900  54.2542830  56.2212390  24.7839150  54.3477420
  59.9024540  27.3996010  39.3225610  60.4230200  26.6845030  38.9566760
  60.5492940  28.0381880  39.6226120  64.4502380  28.8224410  54.6460680
  64.8643400  28.9769490  55.4951100  63.5153380  28.9479630  54.8086460
  64.9224550  26.1620570  56.6499830  65.5045320  25.4072890  56.5620310
  65.0986320  26.6928010  55.8731310  56.0396620  21.3217320  54.9616780
  55.9453490  20.7038070  54.2367650  55.4594010  22.0483610  54.7346690
  58.8058060  19.8790560  51.9944170  58.3575360  19.9014820  51.1489720
  58.1723260  19.4809580  52.5914470  59.2117610  28.7744890  52.6156610
  59.6305720  29.6177620  52.4432850  58.2926240  28.9116930  52.3863390
  61.5481510  26.5061070  53.9994450  61.6677720  25.9102210  54.7389290
  62.4075510  26.5430760  53.5795750  63.8869410  27.0598260  52.5756960
  63.3604630  27.5840880  51.9722100  64.2300750  27.6925650  53.2066690
  56.2855800  24.4491630  39.0206670  56.0844860  23.5858990  39.3820010
  56.1147850  24.3624990  38.0828270  57.0625030  35.0797900  53.7314340
  56.5246120  35.8043960  53.4123040  57.3158990  34.6028240  52.9411680
  58.3150280  23.0482420  55.2570270  58.9049970  22.7398270  55.9448090
  57.4970520  22.5762170  55.4130170  63.1343710  22.6648230  55.4903290
  62.4459230  22.0029770  55.4253280  63.8549730  22.2186500  55.9351750
  63.7644110  19.2599860  41.5493550  64.0446400  18.4167760  41.9052970
  62.9909840  19.4922970  42.0632300  55.0838600  21.5492250  39.0084550
  55.3864500  21.5559680  38.1003700  55.8233190  21.1990110  39.5052210
  59.9187240  36.3149110  53.9900990  59.8445940  37.2184250  54.2973360
  59.0166080  35.9961010  53.9623060  58.3023530  20.4926870  39.9940750
  57.9545530  19.8150860  39.4143200  58.5036300  20.0316380  40.8084140
  54.1068730  30.8534670  39.8414350  54.5443600  31.3964340  40.4971930
  54.5916460  30.0281620  39.8510690  51.3214530  33.6423700  47.2934610
  51.6517540  32.7744760  47.0613250  51.7505530  33.8482220  48.1239570
  55.9176450  31.9732710  44.9536580  55.6171990  31.8497680  45.8540490
  55.8113940  31.1141300  44.5452310  51.8104740  34.5094290  50.0316240
  51.3735730  34.6895090  50.8640390  52.3782420  35.2668910  49.8897960
  67.4466920  34.0111290  54.3193550  66.8468910  34.0703850  53.5757470
  67.5760820  33.0716270  54.4490400  51.6429170  27.0214520  46.3905120
  50.9878010  26.7526160  45.7464820  52.4807120  26.9119000  45.9407100
  69.1484800  29.3526690  47.0039390  69.5193630  28.5694010  46.5975360
  69.7886730  30.0415790  46.8256690  66.1318560  30.7363270  52.4169710
  65.3178400  31.1660430  52.6795500  66.5392760  31.3481680  51.8038760
  64.5919610  21.8155810  40.6123610  65.0104490  21.6286790  39.7720270
  64.2855670  20.9634860  40.9226540  68.0909340  26.7279950  44.3099410
  67.7152940  25.9607880  43.8780700  67.3612460  27.1102650  44.7974340
  52.6805100  27.4067090  50.9308460  53.0478140  27.3194490  51.8104480
  52.1115920  26.6433640  50.8315320  67.4808960  25.8751470  53.9438930
  67.2495050  25.6464220  53.0436880  67.7413510  26.7951020  53.8983820
  52.2321100  24.3176180  54.8366880  51.3377150  24.2842940  55.1760590
  52.7718650  24.5162970  55.6018130  65.9197030  21.1007900  56.7218630
  66.7967210  21.1091300  57.1052630  65.9317870  20.3638740  56.1110980
  50.8567250  24.2313450  42.3330450  49.9531330  24.4943650  42.1582110
  51.3407870  24.5024620  41.5530410  67.3660300  24.9537440  47.6106650
  67.8897780  24.4600090  46.9796820  67.9519720  25.0887800  48.3554220
  67.5450020  25.0377310  51.1326200  66.5952730  25.0040850  51.2471190
  67.7263030  25.9477420  50.8975970  53.3994460  23.2878990  40.2424830
  54.1086160  22.8662210  39.7572110  52.6834400  23.3554220  39.6108180
  53.0468620  19.3418320  39.2827480  53.7696750  19.8827260  39.6008700
  53.3193140  19.0681740  38.4069020  66.8560270  24.2110790  43.5499060
  67.3519390  23.9781660  44.3347940  66.6576340  23.3722630  43.1336700
  52.7360810  18.5924510  49.1850100  53.3837000  18.0421890  48.7445260
  53.1562650  18.8467660  50.0065910  68.2847430  22.8471740  46.0836740
  68.1746710  22.6927780  47.0219010  69.0455020  22.3192680  45.8412150
  66.6313150  18.7865870  52.5419740  67.2685370  19.4000010  52.9078930
  66.7788040  18.8226530  51.5968970  52.4892810  18.7480180  51.9275420
  52.1407630  19.2044000  52.6933600  52.1580510  17.8537310  52.0097850
  54.0957180  31.9199780  56.0928610  54.0526810  31.5492690  56.9743070
  54.2268190  32.8577350  56.2330430  57.7963210  33.4759370  51.6938330
  57.5554570  33.7433930  50.8068850  58.7365850  33.6465100  51.7489190
  60.0017630  19.9392060  55.4494840  59.9406520  20.5313890  56.1990250
  60.9418010  19.8318020  55.3045100  62.6392190  19.5962120  55.0887130
  63.2532600  19.9141410  54.4268210  63.1841750  19.1110710  55.7082990
  69.0567370  35.4953750  52.4948970  68.5625650  35.8922620  51.7776100
  68.4480660  34.8702960  52.8886250  53.1613450  18.2756380  55.2026190
  53.7096440  18.0944430  54.4392300  53.2268760  17.4850490  55.7382500
  53.9345210  34.8662030  53.2126390  53.3405530  34.7346730  53.9516430
  53.9269050  34.0300170  52.7468490  63.3800230  18.1594260  51.4156420
  62.5060070  18.4929370  51.2129350  63.2710980  17.6867440  52.2408290
  64.2872210  20.3665130  52.7998140  63.9585570  19.5516890  52.4199870
  65.2354510  20.3234940  52.6763830  53.5657440  32.2320410  52.1634430
  52.8391500  31.6125700  52.0960380  53.6266590  32.6261020  51.2932510
  57.1702540  34.4465410  48.9483840  57.6867560  33.8352770  48.4232100
  57.8199920  34.9494190  49.4394850  59.9098040  35.3373900  49.7752820
  60.1975850  35.0828200  48.8985830  60.4221260  34.7851260  50.3658390
  61.1275050  19.0764100  50.3549330  60.3446840  19.5509600  50.6346090
  60.8337980  18.1718930  50.2462510  65.6796120  19.7787200  48.3998420
  66.1204210  19.7232300  47.5520020  65.4103710  20.6945210  48.4708600
  67.5434690  19.4102440  46.4107240  67.4823090  18.4663660  46.2638260
  68.3226720  19.5182530  46.9560700  51.8487440  35.5494800  45.3731190
  51.6809480  34.9165480  46.0713080  50.9821950  35.7554200  45.0225380
  52.4715460  19.3811580  42.8763050  53.2294820  19.4940460  42.3027080
  52.0092630  20.2180780  42.8306480  59.0129270  21.4950850  45.8665360
  58.2003780  21.1207740  45.5261240  59.5170910  20.7395930  46.1686550
  63.5154250  18.1593300  47.1048430  64.1183620  18.7313510  47.5796950
  62.7747240  18.7232740  46.8822330  66.6588850  18.5614860  42.3788710
  66.8539480  19.4598310  42.6456140  65.8718720  18.3301940  42.8721660
  53.4550140  34.2428030  42.8181330  52.9297760  34.6236060  42.1143290
  53.3794720  34.8678800  43.5391040  54.8440610  19.9075630  41.4165020
  55.3733370  19.1205430  41.2872970  55.4768930  20.5866820  41.6500550
  57.0378450  19.6450770  44.4710410  56.4081190  18.9438080  44.6380540
  56.4983590  20.4054900  44.2543570  59.9770400  36.2590000  57.1421020
  60.9037710  36.0234270  57.1856980  59.9620830  37.0862000  56.6607050
  57.1634010  18.9234750  56.9062900  56.8818280  19.4268350  56.1423720
  57.5453710  18.1256500  56.5405030  56.0543110  36.1910410  41.6930580
  56.7861930  35.9069690  41.1454470  56.3136780  35.9523690  42.5829960
  55.2157900  32.3075140  41.6976910  54.5866780  32.7760240  42.2462740
  55.3305730  31.4624360  42.1323100  63.7649470  18.3388330  57.4843370
  63.6514920  18.6582940  58.3794890  64.5819210  18.7400840  57.1880650
  66.5447960  35.4859860  56.9662060  67.3373280  34.9909090  56.7588020
  66.8381110  36.1650000  57.5737670  62.6707620  26.3580800  27.8478110
  62.5901670  25.4435410  27.5769820  62.2572040  26.8547870  27.1417820
  60.8025660  28.1359820  29.7287380  60.0267760  27.6560260  30.0185950
  61.4538590  27.4565470  29.5543540  54.8191490  28.4479630  30.6063140
  53.9876370  28.1928340  31.0059650  55.4272470  28.5190400  31.3421060
  54.7992750  32.4819720  30.8021160  55.1020790  31.5917460  30.6231380
  55.5436340  33.0389940  30.5743410  53.2283440  23.4081520  24.3905530
  52.3400140  23.7497490  24.2885410  53.5124630  23.2081840  23.4986360
  51.1916450  26.0087170  30.2745230  51.7632560  25.2409370  30.2748870
  51.1917990  26.3075930  29.3651840  61.0496400  34.8278020  28.1290500
  60.4307840  35.2835520  27.5584940  61.9048180  34.9829480  27.7280200
  60.2434650  30.8117010  29.7357540  60.1742930  29.8706950  29.5746670
  61.0054510  30.9018420  30.3080110  52.4341320  21.4171530  32.0614160
  52.2544160  20.5197280  32.3416920  52.0321400  21.9643400  32.7361110
  61.2739820  23.6187390  29.9626470  61.6504640  22.7459270  29.8500140
  61.1759330  23.9546090  29.0716910  55.4044830  21.9913020  25.4243910
  55.5111580  22.8916750  25.7312670  54.4937190  21.9430990  25.1338560
  65.0563940  21.1137830  26.8954810  65.8773560  20.6234400  26.9380290
  65.0898020  21.7035490  27.6486650  53.0527990  23.9132030  30.6696500
  53.7338100  24.1770400  31.2883900  52.7376040  23.0732900  31.0034510
  57.2452560  24.9599390  29.7569090  57.7530780  25.4580360  30.3974110
  57.7765800  24.1834590  29.5808450  55.5288660  19.5997950  34.0232510
  55.5307100  20.1170340  33.2178410  54.6992970  19.1228130  34.0002440
  61.9159750  29.7117260  25.5222410  61.2977020  30.1766710  24.9585130
  62.4283000  30.4044740  25.9391920  56.7791510  29.2393130  32.2006010
  56.4460890  29.8662050  32.8427080  56.9558190  29.7655010  31.4207680
  65.2925420  23.0538210  29.6682350  64.5880990  23.3423100  30.2485460
  65.6537580  23.8638320  29.3081910  55.2103990  21.3107910  32.0302960
  55.5520800  22.1549960  31.7356830  54.2719800  21.4591650  32.1468300
  55.9910610  31.2073930  34.0155190  56.6084610  31.8825010  33.7339640
  55.1303730  31.6161910  33.9242690  51.2842950  30.3973790  22.8962040
  50.9070930  30.8860890  22.1646940  51.5416020  31.0699070  23.5268570
  58.8931880  18.7990180  28.3547550  59.2006860  18.2437070  27.6383050
  57.9632580  18.9334640  28.1720540  63.8432380  29.4187310  31.9737620
  64.2601170  29.2047420  31.1391080  64.5672200  29.6760100  32.5446240
  61.2812640  26.8639010  25.0907670  60.3541920  26.7976390  25.3196140
  61.4337460  27.8019140  24.9762910  61.2681720  23.1356010  22.0874830
  60.3285390  23.2969970  22.1727290  61.5864980  23.8541690  21.5410820
  64.7536490  24.6043850  33.0108730  64.3407670  25.4297560  33.2648720
  64.0212440  24.0188890  32.8185090  56.8869280  27.3903750  27.8727400
  56.4826280  26.6781000  27.3773300  56.9732400  27.0456990  28.7615440
  57.3550980  31.0771310  30.0366610  57.0579270  30.4716780  29.3574390
  58.3050800  31.1148620  29.9255970  55.5997900  24.1646960  31.6526440
  56.1512490  24.2742300  30.8779690  56.1141410  24.5384560  32.3681670
  56.4469410  30.8153000  36.6874410  55.5497940  31.0392970  36.9347810
  56.4722280  30.9387940  35.7385810  63.4874630  27.6646120  22.6015670
  63.9267910  26.8268550  22.4553490  64.2003050  28.2975520  22.6879810
  55.2740630  27.6866320  35.2631780  55.1348400  28.5589120  35.6319180
  54.3921990  27.3439130  35.1179720  57.0720980  33.6288020  37.4716930
  57.0436410  34.0330970  36.6045360  56.9085950  32.6998380  37.3088530
  67.0691770  18.9188930  20.9156710  66.7564430  19.0115760  21.8155780
  67.8304240  19.4969960  20.8654140  53.5873910  26.2848730  25.3734050
  53.4671510  27.0110820  24.7615320  53.2774800  25.5151640  24.8961960
  51.2259280  29.4563870  31.1802690  51.3039700  29.5912640  30.2358410
  51.8400960  28.7479760  31.3730810  52.4706910  31.1564060  27.5908870
  52.0634990  31.2978650  26.7362470  53.3619920  30.8724220  27.3880080
  62.2885790  35.3055970  34.4975920  62.8030460  35.2163980  35.2998350
  61.4454870  35.6515670  34.7903830  64.2640190  35.5911310  23.9259920
  64.1041330  35.3014250  24.8241750  64.0986900  34.8151440  23.3905150
  56.7428570  35.3709840  25.7031540  56.5671050  34.4545380  25.4899340
  55.8884310  35.7297130  25.9429340  63.9666320  33.0998870  22.4857920
  63.2731480  33.0976160  21.8260200  64.7089180  32.6758190  22.0552090
  51.2818800  30.4978040  33.7197150  51.4449840  30.0283400  32.9016520
  51.7471250  29.9901600  34.3845990  56.0537570  19.6283800  28.7557720
  55.6105720  20.4093340  28.4242240  56.6122560  19.9513690  29.4628660
  60.3407380  22.4952320  34.3593040  59.8786750  22.7035340  35.1712980
  59.9385490  21.6811670  34.0563710  65.3411890  23.7161270  35.4889700
  64.4905480  23.4167020  35.8098770  65.1813680  23.9603280  34.5773520
  62.4361600  25.2163020  37.5888490  62.7615010  24.3826770  37.2490720
  63.2241930  25.7391540  37.7366820  59.1696390  19.2494500  23.6363550
  58.5450570  19.2454370  24.3616860  59.0826510  18.3825460  23.2399520
  58.0913470  20.1731130  30.6147320  58.3885800  21.0793960  30.5339340
  58.6399030  19.6849910  30.0006890  55.8451790  24.7517370  26.4838970
  55.6192710  24.5354540  27.3885590  55.0644320  25.1845830  26.1384940
  63.0749550  24.7580740  25.0829620  62.4758440  25.4816540  24.8993240
  63.6229160  24.6957520  24.3006070  58.2851000  25.6502950  37.1499240
  58.1894600  24.7097680  36.9999640  59.1282980  25.8718020  36.7547310
  61.6814420  23.3944280  27.1132900  62.0743990  23.7116480  26.3001590
  62.0431270  22.5156160  27.2277420  53.4161540  22.0616620  35.3033020
  53.0224930  22.9091830  35.5105800  52.7279940  21.4242990  35.4941660
  59.9906590  22.1451590  38.3729760  59.3004910  21.9523790  39.0075850
  60.7338890  22.4286230  38.9054060  50.7178590  19.9845080  29.3363100
  50.4291640  20.5547940  30.0488080  51.4624350  19.5049530  29.6994330
  50.9048820  23.9265200  20.5465820  50.8223490  24.8695960  20.6880810
  50.5531880  23.7840110  19.6678170  62.2669560  25.9850030  31.2083680
  61.5350680  26.4936840  31.5573780  61.8693900  25.1680010  30.9072460
  58.7046950  22.6604230  29.6136170  58.7083010  22.2194180  28.7640710
  59.5998070  22.9821560  29.7207990  54.5549330  22.5430720  28.5730380
  54.2149380  23.0205950  29.3297430  53.7926650  22.0895840  28.2131480
  58.7667100  23.6616310  22.6042930  58.8879920  23.6202790  23.5528750
  58.3815610  24.5240460  22.4489660  62.7295470  21.4383710  30.6206620
  62.7468210  21.8892360  31.4648470  62.4811050  20.5389350  30.8340060
  57.7788600  25.9717450  22.0026230  57.2105500  25.5235700  21.3762140
  58.4877600  26.3310230  21.4691380  66.1566220  18.8515890  36.4593000
  66.4811990  18.1205550  36.9850980  66.1922730  18.5329530  35.5573990
  52.8557780  29.8729470  35.8792960  52.4712570  29.2323140  36.4775920
  53.1669970  30.5765590  36.4487690  59.0054920  26.7206010  31.3601580
  59.3725050  26.2464580  32.1062920  58.8159980  27.5947580  31.7009920
  51.8695410  21.4649700  27.4895050  51.5842330  21.1005370  28.3273670
  51.8074270  20.7330160  26.8758190  56.7954290  25.7614650  33.6785790
  56.4911360  26.6406630  33.9036150  57.7500750  25.8214440  33.7143230
  55.3236080  29.9675640  24.2752640  54.5498340  29.4273260  24.1151360
  56.0530710  29.4482250  23.9370400  61.5434000  20.3578960  24.2108420
  60.7298610  19.8592130  24.1353730  61.3495950  21.1977210  23.7944770
  61.4642860  29.0350060  35.9548030  61.3980170  28.1145730  35.7005620
  60.8348000  29.1325500  36.6692670  64.2582390  24.7298610  22.5070580
  65.1462010  25.0415840  22.3321920  64.2287480  23.8570860  22.1151160
  55.3673480  29.6356020  27.9131450  55.8852150  28.8324280  27.8588340
  54.9157500  29.5735160  28.7548280  60.2542980  30.9022300  23.1858750
  60.5958680  31.6464530  22.6902070  59.4255690  31.2153420  23.5483580
  52.8518020  26.6017390  34.8257150  52.4932960  27.2671240  35.4130490
  52.5572580  25.7700940  35.1969770  56.0531140  27.0601630  37.7096700
  55.7531280  27.2058810  36.8124520  56.8242380  26.5006920  37.6170090
  61.3959590  31.8570630  35.7051830  61.4104130  30.9251590  35.4870740
  60.6884690  31.9430390  36.3441600  66.5296660  26.0410450  21.9750440
  66.4460380  26.4724670  21.1246880  67.2490850  26.5008800  22.4077260
  59.2233670  30.9835830  25.9574670  59.9104800  31.5305040  26.3382260
  58.4366090  31.5276560  25.9924280  51.3626070  26.6008650  21.4491750
  52.2320920  26.8833450  21.7327670  50.8716390  27.4144520  21.3340560
  58.5260880  27.9881860  25.5700030  58.9823660  28.7987110  25.7960220
  58.1749090  27.6705000  26.4018520  60.8293490  33.4988200  32.7992330
  61.4735710  33.7047580  33.4765750  61.1922930  32.7376600  32.3463180
  54.4272660  18.3319510  26.0422550  54.2987290  18.3237410  26.9907470
  53.6034680  18.6702600  25.6913560  62.1025570  31.5020550  31.5169780
  62.7447800  30.8013710  31.6301950  62.6274920  32.2818990  31.3366670
  65.9481290  31.7869170  21.2408920  65.7218870  31.0699610  21.8333560
  65.5577490  31.5381610  20.4030670  63.8763190  32.3015450  34.7205840
  64.2119430  32.8882140  35.3983760  62.9563530  32.1708160  34.9503630
  51.7297320  35.8136030  22.0153380  52.0894960  36.4125370  21.3610650
  51.5889660  36.3595920  22.7888410  51.4266590  20.0910630  35.5029250
  50.7125110  20.2907550  36.1081860  51.8461630  19.3150200  35.8744050
  51.7139180  34.0790890  36.4895780  51.8230300  33.1385630  36.3491170
  51.0619740  34.3445640  35.8409510  59.7051770  32.3506780  37.8893900
  59.3848640  31.6316020  38.4339590  59.0310130  33.0261850  37.9629960
  57.7465940  33.1967230  22.8327050  57.7376040  33.9296920  22.2171560
  56.8264300  32.9498810  22.9254010  53.3472580  28.4182120  23.5773810
  52.7400530  29.1581020  23.5869110  53.8221930  28.5081480  22.7512010
  62.9205370  22.5832940  33.2530700  63.2886190  21.7628150  33.5810270
  62.0603570  22.6434830  33.6686350  66.2867400  21.5389880  24.0618260
  65.6580560  21.6435550  23.3476490  65.7919320  21.7586660  24.8512140
  60.7325540  33.2595470  21.4952240  60.8337520  33.0559460  20.5654220
  59.8327280  33.0053750  21.7000020  58.2551430  23.8175830  25.4776140
  57.5467580  24.2862170  25.9189750  58.5395910  23.1597840  26.1121330
  59.8807360  25.2372530  33.4768670  60.3792610  25.7118350  34.1420520
  60.0230310  24.3136050  33.6838700  62.2866860  20.5426490  26.9171930
  62.1634640  20.5612620  25.9681440  63.2351420  20.5905430  27.0370330
  59.3743650  35.7781790  26.1899910  59.6285150  35.7403180  25.2679280
  58.4256130  35.6515120  26.1828160  56.4586450  22.1260910  22.8526850
  57.3076980  22.5631060  22.7867040  56.0917720  22.4381170  23.6798910
  67.0874220  21.4540490  34.3197060  66.5847820  22.1945890  34.6590870
  67.9030880  21.8424490  34.0033850  55.3577870  28.3793270  21.3262380
  56.1241140  28.2674630  21.8887810  55.4352560  27.6831240  20.6739150
  54.0524630  25.8118340  22.0095270  54.1328220  24.8645850  22.1212670
  54.9444380  26.1425220  22.1155930  54.8539340  35.9613730  29.1129810
  55.5901820  35.4129190  29.3838380  55.2380260  36.8269740  28.9735800
  51.7384820  32.0287300  24.9871320  50.8124600  32.2708440  24.9776730
  52.2041250  32.8561560  24.8656070  53.8597620  35.1459800  38.3015390
  54.6610350  35.4671850  38.7150790  53.3449440  34.7855380  39.0235300
  57.9641650  35.1344040  20.9355380  58.7570260  35.4232870  20.4837170
  57.4446000  34.7036210  20.2567860  62.6962250  31.2539670  38.2490800
  62.0900410  31.2771270  37.5086550  62.3916360  30.5222710  38.7858050
  51.5795430  27.6333260  37.2451440  52.0834450  27.0540540  37.8167670
  50.8402850  27.9173490  37.7827810  58.4819050  30.3547450  20.7997730
  58.3769690  29.7399800  21.5259110  58.3143270  29.8313340  20.0160740
  58.6333370  29.0404250  36.7786960  57.8679040  29.6089250  36.6941630
  58.8149330  28.7480460  35.8855190  61.7221780  29.4167480  21.4039720
  61.1731880  29.8636780  22.0482460  62.3441040  28.9116730  21.9277390
  65.7756720  30.7709580  37.3361980  66.5166190  31.1085340  36.8329440
  65.0129400  30.9401640  36.7831750  53.6118510  25.7762850  38.1401510
  53.6523850  25.4776720  39.0486740  54.4664010  26.1770460  37.9809030
  57.3896900  28.3758400  23.3005020  57.8113320  28.2098270  24.1436410
  57.5147740  27.5658630  22.8060160  55.5524320  24.3554950  36.1076000
  55.0220780  23.8645900  35.4799340  56.2212390  24.7839150  35.5733930
  59.9024540  27.3996010  20.5482120  60.4230200  26.6845030  20.1823270
  60.5492940  28.0381880  20.8482630  64.4502380  28.8224410  35.8717190
  64.8643400  28.9769490  36.7207610  63.5153380  28.9479630  36.0342970
  64.9224550  26.1620570  37.8756340  65.5045320  25.4072890  37.7876820
  65.0986320  26.6928010  37.0987820  56.0396620  21.3217320  36.1873290
  55.9453490  20.7038070  35.4624160  55.4594010  22.0483610  35.9603200
  58.8058060  19.8790560  33.2200680  58.3575360  19.9014820  32.3746230
  58.1723260  19.4809580  33.8170980  59.2117610  28.7744890  33.8413120
  59.6305720  29.6177620  33.6689360  58.2926240  28.9116930  33.6119900
  61.5481510  26.5061070  35.2250960  61.6677720  25.9102210  35.9645800
  62.4075510  26.5430760  34.8052260  63.8869410  27.0598260  33.8013470
  63.3604630  27.5840880  33.1978610  64.2300750  27.6925650  34.4323200
  56.2855800  24.4491630  20.2463180  56.0844860  23.5858990  20.6076520
  56.1147850  24.3624990  19.3084780  57.0625030  35.0797900  34.9570850
  56.5246120  35.8043960  34.6379550  57.3158990  34.6028240  34.1668190
  58.3150280  23.0482420  36.4826780  58.9049970  22.7398270  37.1704600
  57.4970520  22.5762170  36.6386680  63.1343710  22.6648230  36.7159800
  62.4459230  22.0029770  36.6509790  63.8549730  22.2186500  37.1608260
  63.7644110  19.2599860  22.7750060  64.0446400  18.4167760  23.1309480
  62.9909840  19.4922970  23.2888810  55.0838600  21.5492250  20.2341060
  55.3864500  21.5559680  19.3260210  55.8233190  21.1990110  20.7308720
  59.9187240  36.3149110  35.2157500  59.8445940  37.2184250  35.5229870
  59.0166080  35.9961010  35.1879570  58.3023530  20.4926870  21.2197260
  57.9545530  19.8150860  20.6399710  58.5036300  20.0316380  22.0340650
  60.4672570  35.4807620  22.8383860  61.3623360  35.8192590  22.8602620
  60.4990200  34.7587030  22.2108140  54.1068730  30.8534670  21.0670860
  54.5443600  31.3964340  21.7228440  54.5916460  30.0281620  21.0767200
  51.3214530  33.6423700  28.5191120  51.6517540  32.7744760  28.2869760
  51.7505530  33.8482220  29.3496080  55.9176450  31.9732710  26.1793090
  55.6171990  31.8497680  27.0797000  55.8113940  31.1141300  25.7708820
  51.8104740  34.5094290  31.2572750  51.3735730  34.6895090  32.0896900
  52.3782420  35.2668910  31.1154470  51.6429170  27.0214520  27.6161630
  50.9878010  26.7526160  26.9721330  52.4807120  26.9119000  27.1663610
  68.1944000  28.7910960  20.5426490  68.4692840  29.6989840  20.4145710
  68.0054740  28.7273490  21.4788480  64.5919610  21.8155810  21.8380120
  65.0104490  21.6286790  20.9976780  64.2855670  20.9634860  22.1483050
  52.6805100  27.4067090  32.1564970  53.0478140  27.3194490  33.0360990
  52.1115920  26.6433640  32.0571830  67.4808960  25.8751470  35.1695440
  67.2495050  25.6464220  34.2693390  67.7413510  26.7951020  35.1240330
  52.2321100  24.3176180  36.0623390  51.3377150  24.2842940  36.4017100
  52.7718650  24.5162970  36.8274640  65.9197030  21.1007900  37.9475140
  66.7967210  21.1091300  38.3309140  65.9317870  20.3638740  37.3367490
  50.8567250  24.2313450  23.5586960  49.9531330  24.4943650  23.3838620
  51.3407870  24.5024620  22.7786920  53.3994460  23.2878990  21.4681340
  54.1086160  22.8662210  20.9828620  52.6834400  23.3554220  20.8364690
  53.0468620  19.3418320  20.5083990  53.7696750  19.8827260  20.8265210
  53.3193140  19.0681740  19.6325530  66.8560270  24.2110790  24.7755570
  67.3519390  23.9781660  25.5604450  66.6576340  23.3722630  24.3593210
  52.7360810  18.5924510  30.4106610  53.3837000  18.0421890  29.9701770
  53.1562650  18.8467660  31.2322420  66.6313150  18.7865870  33.7676250
  67.2685370  19.4000010  34.1335440  66.7788040  18.8226530  32.8225480
  69.1737700  20.6779660  20.5499390  70.0987010  20.5460840  20.3417680
  69.1513490  20.7572480  21.5035840  69.2476190  21.4490320  23.1756100
  68.4527690  21.3835440  23.7049010  69.4519470  22.3840960  23.1641450
  52.4892810  18.7480180  33.1531930  52.1407630  19.2044000  33.9190110
  52.1580510  17.8537310  33.2354360  54.0957180  31.9199780  37.3185120
  54.0526810  31.5492690  38.1999580  54.2268190  32.8577350  37.4586940
  57.7963210  33.4759370  32.9194840  57.5554570  33.7433930  32.0325360
  58.7365850  33.6465100  32.9745700  60.0017630  19.9392060  36.6751350
  59.9406520  20.5313890  37.4246760  60.9418010  19.8318020  36.5301610
  62.6392190  19.5962120  36.3143640  63.2532600  19.9141410  35.6524720
  63.1841750  19.1110710  36.9339500  53.1613450  18.2756380  36.4282700
  53.7096440  18.0944430  35.6648810  53.2268760  17.4850490  36.9639010
  53.9345210  34.8662030  34.4382900  53.3405530  34.7346730  35.1772940
  53.9269050  34.0300170  33.9725000  63.3800230  18.1594260  32.6412930
  62.5060070  18.4929370  32.4385860  63.2710980  17.6867440  33.4664800
  64.2872210  20.3665130  34.0254650  63.9585570  19.5516890  33.6456380
  65.2354510  20.3234940  33.9020340  53.5657440  32.2320410  33.3890940
  52.8391500  31.6125700  33.3216890  53.6266590  32.6261020  32.5189020
  57.1702540  34.4465410  30.1740350  57.6867560  33.8352770  29.6488610
  57.8199920  34.9494190  30.6651360  59.9098040  35.3373900  31.0009330
  60.1975850  35.0828200  30.1242340  60.4221260  34.7851260  31.5914900
  61.1275050  19.0764100  31.5805840  60.3446840  19.5509600  31.8602600
  60.8337980  18.1718930  31.4719020  65.6796120  19.7787200  29.6254930
  66.1204210  19.7232300  28.7776530  65.4103710  20.6945210  29.6965110
  67.5434690  19.4102440  27.6363750  67.4823090  18.4663660  27.4894770
  68.3226720  19.5182530  28.1817210  51.8487440  35.5494800  26.5987700
  51.6809480  34.9165480  27.2969590  50.9821950  35.7554200  26.2481890
  52.4715460  19.3811580  24.1019560  53.2294820  19.4940460  23.5283590
  52.0092630  20.2180780  24.0562990  59.0129270  21.4950850  27.0921870
  58.2003780  21.1207740  26.7517750  59.5170910  20.7395930  27.3943060
  63.5154250  18.1593300  28.3304940  64.1183620  18.7313510  28.8053460
  62.7747240  18.7232740  28.1078840  66.6588850  18.5614860  23.6045220
  66.8539480  19.4598310  23.8712650  65.8718720  18.3301940  24.0978170
  53.4550140  34.2428030  24.0437840  52.9297760  34.6236060  23.3399800
  53.3794720  34.8678800  24.7647550  54.8440610  19.9075630  22.6421530
  55.3733370  19.1205430  22.5129480  55.4768930  20.5866820  22.8757060
  57.0378450  19.6450770  25.6966920  56.4081190  18.9438080  25.8637050
  56.4983590  20.4054900  25.4800080  57.1634010  18.9234750  38.1319410
  56.8818280  19.4268350  37.3680230  57.5453710  18.1256500  37.7661540
  56.0543110  36.1910410  22.9187090  56.7861930  35.9069690  22.3710980
  56.3136780  35.9523690  23.8086470  55.2157900  32.3075140  22.9233420
  54.5866780  32.7760240  23.4719250  55.3305730  31.4624360  23.3579610
  63.7649470  18.3388330  38.7099880  63.6514920  18.6582940  39.6051400
  64.5819210  18.7400840  38.4137160  62.6707620  26.3580800   9.0734620
  62.5901670  25.4435410   8.8026330  62.2572040  26.8547870   8.3674330
  60.8025660  28.1359820  10.9543890  60.0267760  27.6560260  11.2442460
  61.4538590  27.4565470  10.7800050  54.8191490  28.4479630  11.8319650
  53.9876370  28.1928340  12.2316160  55.4272470  28.5190400  12.5677570
  64.8233090  32.5420010   9.7343020  64.3614620  31.7707250  10.0630190
  65.6358640  32.5686080  10.2395470  54.7992750  32.4819720  12.0277670
  55.1020790  31.5917460  11.8487890  55.5436340  33.0389940  11.7999920
  53.2283440  23.4081520   5.6162040  52.3400140  23.7497490   5.5141920
  53.5124630  23.2081840   4.7242870  51.1916450  26.0087170  11.5001740
  51.7632560  25.2409370  11.5005380  51.1917990  26.3075930  10.5908350
  61.0496400  34.8278020   9.3547010  60.4307840  35.2835520   8.7841450
  61.9048180  34.9829480   8.9536710  60.2434650  30.8117010  10.9614050
  60.1742930  29.8706950  10.8003180  61.0054510  30.9018420  11.5336620
  52.4341320  21.4171530  13.2870670  52.2544160  20.5197280  13.5673430
  52.0321400  21.9643400  13.9617620  61.2739820  23.6187390  11.1882980
  61.6504640  22.7459270  11.0756650  61.1759330  23.9546090  10.2973420
  55.4044830  21.9913020   6.6500420  55.5111580  22.8916750   6.9569180
  54.4937190  21.9430990   6.3595070  65.0563940  21.1137830   8.1211320
  65.8773560  20.6234400   8.1636800  65.0898020  21.7035490   8.8743160
  53.0527990  23.9132030  11.8953010  53.7338100  24.1770400  12.5140410
  52.7376040  23.0732900  12.2291020  57.2452560  24.9599390  10.9825600
  57.7530780  25.4580360  11.6230620  57.7765800  24.1834590  10.8064960
  69.3463490  23.1304580  14.6854950  68.6415660  23.5186290  14.1670060
  69.6121410  23.8254870  15.2875880  55.5288660  19.5997950  15.2489020
  55.5307100  20.1170340  14.4434920  54.6992970  19.1228130  15.2258950
  61.9159750  29.7117260   6.7478920  61.2977020  30.1766710   6.1841640
  62.4283000  30.4044740   7.1648430  56.7791510  29.2393130  13.4262520
  56.4460890  29.8662050  14.0683590  56.9558190  29.7655010  12.6464190
  65.2925420  23.0538210  10.8938860  64.5880990  23.3423100  11.4741970
  65.6537580  23.8638320  10.5338420  55.2103990  21.3107910  13.2559470
  55.5520800  22.1549960  12.9613340  54.2719800  21.4591650  13.3724810
  55.9910610  31.2073930  15.2411700  56.6084610  31.8825010  14.9596150
  55.1303730  31.6161910  15.1499200  51.2842950  30.3973790   4.1218550
  50.9070930  30.8860890   3.3903450  51.5416020  31.0699070   4.7525080
  66.9088200  32.6713340  13.1566340  66.2251720  33.3412450  13.1483010
  67.4482490  32.8693990  12.3911200  68.3612340  22.4993000  11.2848070
  67.4137250  22.5331980  11.4163500  68.6862330  23.3131950  11.6697430
  58.8931880  18.7990180   9.5804060  59.2006860  18.2437070   8.8639560
  57.9632580  18.9334640   9.3977050  64.4446940  34.5157470  11.8711520
  64.4574100  34.1119760  11.0033780  63.8922160  35.2904760  11.7672950
  65.7392360  31.2373690   6.9601690  65.6288690  30.2948020   7.0851110
  65.7360610  31.5989330   7.8464450  63.8432380  29.4187310  13.1994130
  64.2601170  29.2047420  12.3647590  64.5672200  29.6760100  13.7702750
  61.2812640  26.8639010   6.3164180  60.3541920  26.7976390   6.5452650
  61.4337460  27.8019140   6.2019420  61.2681720  23.1356010   3.3131340
  60.3285390  23.2969970   3.3983800  61.5864980  23.8541690   2.7667330
  67.7894480  27.8174530  13.2910370  66.9613110  27.8867620  12.8160500
  68.3844960  28.4028840  12.8226200  65.3109930  28.4259310   6.8199430
  64.6922350  28.0878860   6.1725730  65.2934380  27.7819070   7.5278620
  64.7536490  24.6043850  14.2365240  64.3407670  25.4297560  14.4905230
  64.0212440  24.0188890  14.0441600  56.8869280  27.3903750   9.0983910
  56.4826280  26.6781000   8.6029810  56.9732400  27.0456990   9.9871950
  57.3550980  31.0771310  11.2623120  57.0579270  30.4716780  10.5830900
  58.3050800  31.1148620  11.1512480  55.5997900  24.1646960  12.8782950
  56.1512490  24.2742300  12.1036200  56.1141410  24.5384560  13.5938180
  65.4436590  34.6503180  14.9246220  64.9667150  35.4575370  14.7318830
  64.7598380  33.9981510  15.0772430  56.4469410  30.8153000  17.9130920
  55.5497940  31.0392970  18.1604320  56.4722280  30.9387940  16.9642320
  63.4874630  27.6646120   3.8272180  63.9267910  26.8268550   3.6810000
  64.2003050  28.2975520   3.9136320  55.2740630  27.6866320  16.4888290
  55.1348400  28.5589120  16.8575690  54.3921990  27.3439130  16.3436230
  61.5970010  32.6042190   7.7953420  62.0365920  33.3466520   7.3808810
  61.5356900  32.8468760   8.7192380  57.0720980  33.6288020  18.6973440
  57.0436410  34.0330970  17.8301870  56.9085950  32.6998380  18.5345040
  67.0691770  18.9188930   2.1413220  66.7564430  19.0115760   3.0412290
  67.8304240  19.4969960   2.0910650  53.5873910  26.2848730   6.5990560
  53.4671510  27.0110820   5.9871830  53.2774800  25.5151640   6.1218470
  51.2259280  29.4563870  12.4059200  51.3039700  29.5912640  11.4614920
  51.8400960  28.7479760  12.5987320  52.4706910  31.1564060   8.8165380
  52.0634990  31.2978650   7.9618980  53.3619920  30.8724220   8.6136590
  68.4269050  31.6027970  17.1537620  68.5532110  31.3639850  16.2354800
  68.4690430  30.7712510  17.6259700  62.2885790  35.3055970  15.7232430
  62.8030460  35.2163980  16.5254860  61.4454870  35.6515670  16.0160340
  64.2640190  35.5911310   5.1516430  64.1041330  35.3014250   6.0498260
  64.0986900  34.8151440   4.6161660  56.7428570  35.3709840   6.9288050
  56.5671050  34.4545380   6.7155850  55.8884310  35.7297130   7.1685850
  63.9666320  33.0998870   3.7114430  63.2731480  33.0976160   3.0516710
  64.7089180  32.6758190   3.2808600  63.5316250  34.7261580   7.7862920
  63.9873200  33.9450960   8.1001540  63.8708770  35.4368400   8.3304100
  68.2793060  23.6560430  18.1187360  67.6637330  24.1640100  17.5902820
  67.9589480  22.7558760  18.0613300  51.2818800  30.4978040  14.9453660
  51.4449840  30.0283400  14.1273030  51.7471250  29.9901600  15.6102500
  56.0537570  19.6283800   9.9814230  55.6105720  20.4093340   9.6498750
  56.6122560  19.9513690  10.6885170  60.3407380  22.4952320  15.5849550
  59.8786750  22.7035340  16.3969490  59.9385490  21.6811670  15.2820220
  65.3411890  23.7161270  16.7146210  64.4905480  23.4167020  17.0355280
  65.1813680  23.9603280  15.8030030  62.4361600  25.2163020  18.8145000
  62.7615010  24.3826770  18.4747230  63.2241930  25.7391540  18.9623330
  59.1696390  19.2494500   4.8620060  58.5450570  19.2454370   5.5873370
  59.0826510  18.3825460   4.4656030  58.0913470  20.1731130  11.8403830
  58.3885800  21.0793960  11.7595850  58.6399030  19.6849910  11.2263400
  55.8451790  24.7517370   7.7095480  55.6192710  24.5354540   8.6142100
  55.0644320  25.1845830   7.3641450  63.0749550  24.7580740   6.3086130
  62.4758440  25.4816540   6.1249750  63.6229160  24.6957520   5.5262580
  58.2851000  25.6502950  18.3755750  58.1894600  24.7097680  18.2256150
  59.1282980  25.8718020  17.9803820  61.6814420  23.3944280   8.3389410
  62.0743990  23.7116480   7.5258100  62.0431270  22.5156160   8.4533930
  53.4161540  22.0616620  16.5289530  53.0224930  22.9091830  16.7362310
  52.7279940  21.4242990  16.7198170  59.9906590  22.1451590  19.5986270
  59.3004910  21.9523790  20.2332360  60.7338890  22.4286230  20.1310570
  50.7178590  19.9845080  10.5619610  50.4291640  20.5547940  11.2744590
  51.4624350  19.5049530  10.9250840  62.2669560  25.9850030  12.4340190
  61.5350680  26.4936840  12.7830290  61.8693900  25.1680010  12.1328970
  58.7046950  22.6604230  10.8392680  58.7083010  22.2194180   9.9897220
  59.5998070  22.9821560  10.9464500  54.5549330  22.5430720   9.7986890
  54.2149380  23.0205950  10.5553940  53.7926650  22.0895840   9.4387990
  58.7667100  23.6616310   3.8299440  58.8879920  23.6202790   4.7785260
  58.3815610  24.5240460   3.6746170  62.7295470  21.4383710  11.8463130
  62.7468210  21.8892360  12.6904980  62.4811050  20.5389350  12.0596570
  57.7788600  25.9717450   3.2282740  57.2105500  25.5235700   2.6018650
  58.4877600  26.3310230   2.6947890  66.1566220  18.8515890  17.6849510
  66.4811990  18.1205550  18.2107490  66.1922730  18.5329530  16.7830500
  52.8557780  29.8729470  17.1049470  52.4712570  29.2323140  17.7032430
  53.1669970  30.5765590  17.6744200  59.0054920  26.7206010  12.5858090
  59.3725050  26.2464580  13.3319430  58.8159980  27.5947580  12.9266430
  51.8695410  21.4649700   8.7151560  51.5842330  21.1005370   9.5530180
  51.8074270  20.7330160   8.1014700  56.7954290  25.7614650  14.9042300
  56.4911360  26.6406630  15.1292660  57.7500750  25.8214440  14.9399740
  55.3236080  29.9675640   5.5009150  54.5498340  29.4273260   5.3407870
  56.0530710  29.4482250   5.1626910  66.0824060  28.9641000  11.2935540
  66.8023180  29.4596290  10.9031650  65.8805880  28.2858890  10.6489410
  61.5434000  20.3578960   5.4364930  60.7298610  19.8592130   5.3610240
  61.3495950  21.1977210   5.0201280  61.4642860  29.0350060  17.1804540
  61.3980170  28.1145730  16.9262130  60.8348000  29.1325500  17.8949180
  64.2582390  24.7298610   3.7327090  65.1462010  25.0415840   3.5578430
  64.2287480  23.8570860   3.3407670  55.3673480  29.6356020   9.1387960
  55.8852150  28.8324280   9.0844850  54.9157500  29.5735160   9.9804790
  60.2542980  30.9022300   4.4115260  60.5958680  31.6464530   3.9158580
  59.4255690  31.2153420   4.7740090  52.8518020  26.6017390  16.0513660
  52.4932960  27.2671240  16.6387000  52.5572580  25.7700940  16.4226280
  56.0531140  27.0601630  18.9353210  55.7531280  27.2058810  18.0381030
  56.8242380  26.5006920  18.8426600  61.3959590  31.8570630  16.9308340
  61.4104130  30.9251590  16.7127250  60.6884690  31.9430390  17.5698110
  66.5296660  26.0410450   3.2006950  66.4460380  26.4724670   2.3503390
  67.2490850  26.5008800   3.6333770  67.6070800  28.4977970  16.2776920
  66.8818990  29.0906750  16.0806310  68.1346260  28.4901510  15.4790290
  67.5583910  32.8952710   5.9289080  66.9160070  32.2408330   6.2032800
  67.1714570  33.3007800   5.1529750  63.1370390  30.2238140   9.7760770
  63.4894210  29.6266270   9.1162140  62.2532720  29.8982370   9.9469020
  59.2233670  30.9835830   7.1831180  59.9104800  31.5305040   7.5638770
  58.4366090  31.5276560   7.2180790  51.3626070  26.6008650   2.6748260
  52.2320920  26.8833450   2.9584180  50.8716390  27.4144520   2.5597070
  58.5260880  27.9881860   6.7956540  58.9823660  28.7987110   7.0216730
  58.1749090  27.6705000   7.6275030  60.8293490  33.4988200  14.0248840
  61.4735710  33.7047580  14.7022260  61.1922930  32.7376600  13.5719690
  54.4272660  18.3319510   7.2679060  54.2987290  18.3237410   8.2163980
  53.6034680  18.6702600   6.9170070  62.1025570  31.5020550  12.7426290
  62.7447800  30.8013710  12.8558460  62.6274920  32.2818990  12.5623180
  65.9481290  31.7869170   2.4665430  65.7218870  31.0699610   3.0590070
  65.5577490  31.5381610   1.6287180  63.8763190  32.3015450  15.9462350
  64.2119430  32.8882140  16.6240270  62.9563530  32.1708160  16.1760140
  51.7297320  35.8136030   3.2409890  52.0894960  36.4125370   2.5867160
  51.5889660  36.3595920   4.0144920  51.4266590  20.0910630  16.7285760
  50.7125110  20.2907550  17.3338370  51.8461630  19.3150200  17.1000560
  65.5297540  29.7041110   4.1279590  65.2419240  30.1653800   4.9157470
  66.3249710  29.2438880   4.3963810  51.7139180  34.0790890  17.7152290
  51.8230300  33.1385630  17.5747680  51.0619740  34.3445640  17.0666020
  59.7051770  32.3506780  19.1150410  59.3848640  31.6316020  19.6596100
  59.0310130  33.0261850  19.1886470  57.7465940  33.1967230   4.0583560
  57.7376040  33.9296920   3.4428070  56.8264300  32.9498810   4.1510520
  53.3472580  28.4182120   4.8030320  52.7400530  29.1581020   4.8125620
  53.8221930  28.5081480   3.9768520  62.9205370  22.5832940  14.4787210
  63.2886190  21.7628150  14.8066780  62.0603570  22.6434830  14.8942860
  66.2867400  21.5389880   5.2874770  65.6580560  21.6435550   4.5733000
  65.7919320  21.7586660   6.0768650  60.7325540  33.2595470   2.7208750
  60.8337520  33.0559460   1.7910730  59.8327280  33.0053750   2.9256530
  58.2551430  23.8175830   6.7032650  57.5467580  24.2862170   7.1446260
  58.5395910  23.1597840   7.3377840  59.8807360  25.2372530  14.7025180
  60.3792610  25.7118350  15.3677030  60.0230310  24.3136050  14.9095210
  62.2866860  20.5426490   8.1428440  62.1634640  20.5612620   7.1937950
  63.2351420  20.5905430   8.2626840  59.3743650  35.7781790   7.4156420
  59.6285150  35.7403180   6.4935790  58.4256130  35.6515120   7.4084670
  56.4586450  22.1260910   4.0783360  57.3076980  22.5631060   4.0123550
  56.0917720  22.4381170   4.9055420  67.0874220  21.4540490  15.5453570
  66.5847820  22.1945890  15.8847380  67.9030880  21.8424490  15.2290360
  65.3796230  26.6973670   8.9914930  64.4386370  26.7123900   9.1662620
  65.6940300  25.9109630   9.4375230  55.3577870  28.3793270   2.5518890
  56.1241140  28.2674630   3.1144320  55.4352560  27.6831240   1.8995660
  54.0524630  25.8118340   3.2351780  54.1328220  24.8645850   3.3469180
  54.9444380  26.1425220   3.3412440  67.3821810  33.8682520  10.6669190
  67.5069230  34.6913690  11.1393000  68.2487370  33.6573250  10.3193340
  54.8539340  35.9613730  10.3386320  55.5901820  35.4129190  10.6094890
  55.2380260  36.8269740  10.1992310  51.7384820  32.0287300   6.2127830
  50.8124600  32.2708440   6.2033240  52.2041250  32.8561560   6.0912580
  53.8597620  35.1459800  19.5271900  54.6610350  35.4671850  19.9407300
  53.3449440  34.7855380  20.2491810  57.9641650  35.1344040   2.1611890
  58.7570260  35.4232870   1.7093680  57.4446000  34.7036210   1.4824370
  62.6962250  31.2539670  19.4747310  62.0900410  31.2771270  18.7343060
  62.3916360  30.5222710  20.0114560  64.1262620  34.9819960  18.0856720
  65.0784370  34.8977980  18.0356960  63.9790840  35.6461670  18.7590510
  67.0171820  34.3614170   3.5848630  66.7313330  33.9479310   2.7702810
  66.8191370  35.2901880   3.4649150  51.5795430  27.6333260  18.4707950
  52.0834450  27.0540540  19.0424180  50.8402850  27.9173490  19.0084320
  58.6333370  29.0404250  18.0043470  57.8679040  29.6089250  17.9198140
  58.8149330  28.7480460  17.1111700  61.7221780  29.4167480   2.6296230
  61.1731880  29.8636780   3.2738970  62.3441040  28.9116730   3.1533900
  65.7756720  30.7709580  18.5618490  66.5166190  31.1085340  18.0585950
  65.0129400  30.9401640  18.0088260  53.6118510  25.7762850  19.3658020
  53.6523850  25.4776720  20.2743250  54.4664010  26.1770460  19.2065540
  57.3896900  28.3758400   4.5261530  57.8113320  28.2098270   5.3692920
  57.5147740  27.5658630   4.0316670  55.5524320  24.3554950  17.3332510
  55.0220780  23.8645900  16.7055850  56.2212390  24.7839150  16.7990440
  64.4502380  28.8224410  17.0973700  64.8643400  28.9769490  17.9464120
  63.5153380  28.9479630  17.2599480  64.9224550  26.1620570  19.1012850
  65.5045320  25.4072890  19.0133330  65.0986320  26.6928010  18.3244330
  56.0396620  21.3217320  17.4129800  55.9453490  20.7038070  16.6880670
  55.4594010  22.0483610  17.1859710  58.8058060  19.8790560  14.4457190
  58.3575360  19.9014820  13.6002740  58.1723260  19.4809580  15.0427490
  59.2117610  28.7744890  15.0669630  59.6305720  29.6177620  14.8945870
  58.2926240  28.9116930  14.8376410  61.5481510  26.5061070  16.4507470
  61.6677720  25.9102210  17.1902310  62.4075510  26.5430760  16.0308770
  63.8869410  27.0598260  15.0269980  63.3604630  27.5840880  14.4235120
  64.2300750  27.6925650  15.6579710  57.0625030  35.0797900  16.1827360
  56.5246120  35.8043960  15.8636060  57.3158990  34.6028240  15.3924700
  58.3150280  23.0482420  17.7083290  58.9049970  22.7398270  18.3961110
  57.4970520  22.5762170  17.8643190  63.1343710  22.6648230  17.9416310
  62.4459230  22.0029770  17.8766300  63.8549730  22.2186500  18.3864770
  63.7644110  19.2599860   4.0006570  64.0446400  18.4167760   4.3565990
  62.9909840  19.4922970   4.5145320  59.9187240  36.3149110  16.4414010
  59.8445940  37.2184250  16.7486380  59.0166080  35.9961010  16.4136080
  58.3023530  20.4926870   2.4453770  57.9545530  19.8150860   1.8656220
  58.5036300  20.0316380   3.2597160  60.4672570  35.4807620   4.0640370
  61.3623360  35.8192590   4.0859130  60.4990200  34.7587030   3.4364650
  54.1068730  30.8534670   2.2927370  54.5443600  31.3964340   2.9484950
  54.5916460  30.0281620   2.3023710  51.3214530  33.6423700   9.7447630
  51.6517540  32.7744760   9.5126270  51.7505530  33.8482220  10.5752590
  55.9176450  31.9732710   7.4049600  55.6171990  31.8497680   8.3053510
  55.8113940  31.1141300   6.9965330  51.8104740  34.5094290  12.4829260
  51.3735730  34.6895090  13.3153410  52.3782420  35.2668910  12.3410980
  67.4466920  34.0111290  16.7706570  66.8468910  34.0703850  16.0270490
  67.5760820  33.0716270  16.9003420  68.6868370  31.7529110   2.1076280
  67.8561330  31.8205760   2.5783510  68.8640200  32.6433230   1.8043140
  68.1424830  28.4976590   4.6110480  68.9043740  29.0673240   4.7170170
  68.1579200  27.9303790   5.3818790  51.6429170  27.0214520   8.8418140
  50.9878010  26.7526160   8.1977840  52.4807120  26.9119000   8.3920120
  69.1484800  29.3526690   9.4552410  69.5193630  28.5694010   9.0488380
  69.7886730  30.0415790   9.2769710  66.1318560  30.7363270  14.8682730
  65.3178400  31.1660430  15.1308520  66.5392760  31.3481680  14.2551780
  68.1944000  28.7910960   1.7683000  68.4692840  29.6989840   1.6402220
  68.0054740  28.7273490   2.7044990  64.5919610  21.8155810   3.0636630
  65.0104490  21.6286790   2.2233290  64.2855670  20.9634860   3.3739560
  68.0909340  26.7279950   6.7612430  67.7152940  25.9607880   6.3293720
  67.3612460  27.1102650   7.2487360  52.6805100  27.4067090  13.3821480
  53.0478140  27.3194490  14.2617500  52.1115920  26.6433640  13.2828340
  67.4808960  25.8751470  16.3951950  67.2495050  25.6464220  15.4949900
  67.7413510  26.7951020  16.3496840  52.2321100  24.3176180  17.2879900
  51.3377150  24.2842940  17.6273610  52.7718650  24.5162970  18.0531150
  65.9197030  21.1007900  19.1731650  66.7967210  21.1091300  19.5565650
  65.9317870  20.3638740  18.5624000  50.8567250  24.2313450   4.7843470
  49.9531330  24.4943650   4.6095130  51.3407870  24.5024620   4.0043430
  67.3660300  24.9537440  10.0619670  67.8897780  24.4600090   9.4309840
  67.9519720  25.0887800  10.8067240  67.5450020  25.0377310  13.5839220
  66.5952730  25.0040850  13.6984210  67.7263030  25.9477420  13.3488990
  53.3994460  23.2878990   2.6937850  54.1086160  22.8662210   2.2085130
  52.6834400  23.3554220   2.0621200  66.8560270  24.2110790   6.0012080
  67.3519390  23.9781660   6.7860960  66.6576340  23.3722630   5.5849720
  52.7360810  18.5924510  11.6363120  53.3837000  18.0421890  11.1958280
  53.1562650  18.8467660  12.4578930  68.2847430  22.8471740   8.5349760
  68.1746710  22.6927780   9.4732030  69.0455020  22.3192680   8.2925170
  66.6313150  18.7865870  14.9932760  67.2685370  19.4000010  15.3591950
  66.7788040  18.8226530  14.0481990  69.1737700  20.6779660   1.7755900
  70.0987010  20.5460840   1.5674190  69.1513490  20.7572480   2.7292350
  69.2476190  21.4490320   4.4012610  68.4527690  21.3835440   4.9305520
  69.4519470  22.3840960   4.3897960  66.1894610  35.4881870   8.3951000
  66.7853680  35.1666440   7.7185420  66.4472760  35.0153690   9.1864270
  52.4892810  18.7480180  14.3788440  52.1407630  19.2044000  15.1446620
  52.1580510  17.8537310  14.4610870  54.0957180  31.9199780  18.5441630
  54.0526810  31.5492690  19.4256090  54.2268190  32.8577350  18.6843450
  57.7963210  33.4759370  14.1451350  57.5554570  33.7433930  13.2581870
  58.7365850  33.6465100  14.2002210  60.0017630  19.9392060  17.9007860
  59.9406520  20.5313890  18.6503270  60.9418010  19.8318020  17.7558120
  62.6392190  19.5962120  17.5400150  63.2532600  19.9141410  16.8781230
  63.1841750  19.1110710  18.1596010  69.0567370  35.4953750  14.9461990
  68.5625650  35.8922620  14.2289120  68.4480660  34.8702960  15.3399270
  53.1613450  18.2756380  17.6539210  53.7096440  18.0944430  16.8905320
  53.2268760  17.4850490  18.1895520  53.9345210  34.8662030  15.6639410
  53.3405530  34.7346730  16.4029450  53.9269050  34.0300170  15.1981510
  63.3800230  18.1594260  13.8669440  62.5060070  18.4929370  13.6642370
  63.2710980  17.6867440  14.6921310  64.2872210  20.3665130  15.2511160
  63.9585570  19.5516890  14.8712890  65.2354510  20.3234940  15.1276850
  66.7406820  36.1377170  12.2248730  66.2809790  36.8892980  11.8506750
  66.1119280  35.4183640  12.1663530  53.5657440  32.2320410  14.6147450
  52.8391500  31.6125700  14.5473400  53.6266590  32.6261020  13.7445530
  57.1702540  34.4465410  11.3996860  57.6867560  33.8352770  10.8745120
  57.8199920  34.9494190  11.8907870  59.9098040  35.3373900  12.2265840
  60.1975850  35.0828200  11.3498850  60.4221260  34.7851260  12.8171410
  61.1275050  19.0764100  12.8062350  60.3446840  19.5509600  13.0859110
  60.8337980  18.1718930  12.6975530  65.6796120  19.7787200  10.8511440
  66.1204210  19.7232300  10.0033040  65.4103710  20.6945210  10.9221620
  67.5434690  19.4102440   8.8620260  67.4823090  18.4663660   8.7151280
  68.3226720  19.5182530   9.4073720  51.8487440  35.5494800   7.8244210
  51.6809480  34.9165480   8.5226100  50.9821950  35.7554200   7.4738400
  52.4715460  19.3811580   5.3276070  53.2294820  19.4940460   4.7540100
  52.0092630  20.2180780   5.2819500  59.0129270  21.4950850   8.3178380
  58.2003780  21.1207740   7.9774260  59.5170910  20.7395930   8.6199570
  63.5154250  18.1593300   9.5561450  64.1183620  18.7313510  10.0309970
  62.7747240  18.7232740   9.3335350  66.6588850  18.5614860   4.8301730
  66.8539480  19.4598310   5.0969160  65.8718720  18.3301940   5.3234680
  53.4550140  34.2428030   5.2694350  52.9297760  34.6236060   4.5656310
  53.3794720  34.8678800   5.9904060  54.8440610  19.9075630   3.8678040
  55.3733370  19.1205430   3.7385990  55.4768930  20.5866820   4.1013570
  57.0378450  19.6450770   6.9223430  56.4081190  18.9438080   7.0893560
  56.4983590  20.4054900   6.7056590  59.9770400  36.2590000  19.5934040
  60.9037710  36.0234270  19.6370000  59.9620830  37.0862000  19.1120070
  68.2115460  35.8015570   6.5908290  68.3867650  35.1153310   5.9469210
  67.5137030  36.3262620   6.1984960  57.1634010  18.9234750  19.3575920
  56.8818280  19.4268350  18.5936740  57.5453710  18.1256500  18.9918050
  56.0543110  36.1910410   4.1443600  56.7861930  35.9069690   3.5967490
  56.3136780  35.9523690   5.0342980  55.2157900  32.3075140   4.1489930
  54.5866780  32.7760240   4.6975760  55.3305730  31.4624360   4.5836120
  63.7649470  18.3388330  19.9356390  63.6514920  18.6582940  20.8307910
  64.5819210  18.7400840  19.6393670  66.5447960  35.4859860  19.4175080
  67.3373280  34.9909090  19.2101040  66.8381110  36.1650000  20.0250690
  62.6707620   7.5837310  65.3965090  62.5901670   6.6691920  65.1256800
  62.2572040   8.0804380  64.6904800  60.8025660   9.3616330  67.2774360
  60.0267760   8.8816770  67.5672930  61.4538590   8.6821980  67.1030520
  54.8191490   9.6736140  68.1550120  53.9876370   9.4184850  68.5546630
  55.4272470   9.7446910  68.8908040  64.8233090  13.7676520  66.0573490
  64.3614620  12.9963760  66.3860660  65.6358640  13.7942590  66.5625940
  54.7992750  13.7076230  68.3508140  55.1020790  12.8173970  68.1718360
  55.5436340  14.2646450  68.1230390  53.2283440   4.6338030  61.9392510
  52.3400140   4.9754000  61.8372390  53.5124630   4.4338350  61.0473340
  51.1916450   7.2343680  67.8232210  51.7632560   6.4665880  67.8235850
  51.1917990   7.5332440  66.9138820  61.0496400  16.0534530  65.6777480
  60.4307840  16.5092030  65.1071920  61.9048180  16.2085990  65.2767180
  60.2434650  12.0373520  67.2844520  60.1742930  11.0963460  67.1233650
  61.0054510  12.1274930  67.8567090  52.4341320   2.6428040  69.6101140
  52.2544160   1.7453790  69.8903900  52.0321400   3.1899910  70.2848090
  61.2739820   4.8443900  67.5113450  61.6504640   3.9715780  67.3987120
  61.1759330   5.1802600  66.6203890  55.4044830   3.2169530  62.9730890
  55.5111580   4.1173260  63.2799650  54.4937190   3.1687500  62.6825540
  65.0563940   2.3394340  64.4441790  65.8773560   1.8490910  64.4867270
  65.0898020   2.9292000  65.1973630  53.0527990   5.1388540  68.2183480
  53.7338100   5.4026910  68.8370880  52.7376040   4.2989410  68.5521490
  57.2452560   6.1855900  67.3056070  57.7530780   6.6836870  67.9461090
  57.7765800   5.4091100  67.1295430  69.3463490   4.3561090  71.0085420
  68.6415660   4.7442800  70.4900530  69.6121410   5.0511380  71.6106350
  61.9159750  10.9373770  63.0709390  61.2977020  11.4023220  62.5072110
  62.4283000  11.6301250  63.4878900  56.7791510  10.4649640  69.7492990
  56.4460890  11.0918560  70.3914060  56.9558190  10.9911520  68.9694660
  65.2925420   4.2794720  67.2169330  64.5880990   4.5679610  67.7972440
  65.6537580   5.0894830  66.8568890  55.2103990   2.5364420  69.5789940
  55.5520800   3.3806470  69.2843810  54.2719800   2.6848160  69.6955280
  55.9910610  12.4330440  71.5642170  56.6084610  13.1081520  71.2826620
  55.1303730  12.8418420  71.4729670  51.2842950  11.6230300  60.4449020
  50.9070930  12.1117400  59.7133920  51.5416020  12.2955580  61.0755550
  66.9088200  13.8969850  69.4796810  66.2251720  14.5668960  69.4713480
  67.4482490  14.0950500  68.7141670  68.3612340   3.7249510  67.6078540
  67.4137250   3.7588490  67.7393970  68.6862330   4.5388460  67.9927900
  64.4446940  15.7413980  68.1941990  64.4574100  15.3376270  67.3264250
  63.8922160  16.5161270  68.0903420  65.7392360  12.4630200  63.2832160
  65.6288690  11.5204530  63.4081580  65.7360610  12.8245840  64.1694920
  63.8432380  10.6443820  69.5224600  64.2601170  10.4303930  68.6878060
  64.5672200  10.9016610  70.0933220  61.2812640   8.0895520  62.6394650
  60.3541920   8.0232900  62.8683120  61.4337460   9.0275650  62.5249890
  61.2681720   4.3612520  59.6361810  60.3285390   4.5226480  59.7214270
  61.5864980   5.0798200  59.0897800  67.7894480   9.0431040  69.6140840
  66.9613110   9.1124130  69.1390970  68.3844960   9.6285350  69.1456670
  65.3109930   9.6515820  63.1429900  64.6922350   9.3135370  62.4956200
  65.2934380   9.0075580  63.8509090  64.7536490   5.8300360  70.5595710
  64.3407670   6.6554070  70.8135700  64.0212440   5.2445400  70.3672070
  56.8869280   8.6160260  65.4214380  56.4826280   7.9037510  64.9260280
  56.9732400   8.2713500  66.3102420  57.3550980  12.3027820  67.5853590
  57.0579270  11.6973290  66.9061370  58.3050800  12.3405130  67.4742950
  55.5997900   5.3903470  69.2013420  56.1512490   5.4998810  68.4266670
  56.1141410   5.7641070  69.9168650  65.4436590  15.8759690  71.2476690
  64.9667150  16.6831880  71.0549300  64.7598380  15.2238020  71.4002900
  56.4469410  12.0409510  74.2361390  55.5497940  12.2649480  74.4834790
  56.4722280  12.1644450  73.2872790  63.4874630   8.8902630  60.1502650
  63.9267910   8.0525060  60.0040470  64.2003050   9.5232030  60.2366790
  55.2740630   8.9122830  72.8118760  55.1348400   9.7845630  73.1806160
  54.3921990   8.5695640  72.6666700  61.5970010  13.8298700  64.1183890
  62.0365920  14.5723030  63.7039280  61.5356900  14.0725270  65.0422850
  57.0720980  14.8544530  75.0203910  57.0436410  15.2587480  74.1532340
  56.9085950  13.9254890  74.8575510  53.5873910   7.5105240  62.9221030
  53.4671510   8.2367330  62.3102300  53.2774800   6.7408150  62.4448940
  51.2259280  10.6820380  68.7289670  51.3039700  10.8169150  67.7845390
  51.8400960   9.9736270  68.9217790  52.4706910  12.3820570  65.1395850
  52.0634990  12.5235160  64.2849450  53.3619920  12.0980730  64.9367060
  68.4269050  12.8284480  73.4768090  68.5532110  12.5896360  72.5585270
  68.4690430  11.9969020  73.9490170  62.2885790  16.5312480  72.0462900
  62.8030460  16.4420490  72.8485330  61.4454870  16.8772180  72.3390810
  64.2640190  16.8167820  61.4746900  64.1041330  16.5270760  62.3728730
  64.0986900  16.0407950  60.9392130  56.7428570  16.5966350  63.2518520
  56.5671050  15.6801890  63.0386320  55.8884310  16.9553640  63.4916320
  63.9666320  14.3255380  60.0344900  63.2731480  14.3232670  59.3747180
  64.7089180  13.9014700  59.6039070  63.5316250  15.9518090  64.1093390
  63.9873200  15.1707470  64.4232010  63.8708770  16.6624910  64.6534570
  68.2793060   4.8816940  74.4417830  67.6637330   5.3896610  73.9133290
  67.9589480   3.9815270  74.3843770  51.2818800  11.7234550  71.2684130
  51.4449840  11.2539910  70.4503500  51.7471250  11.2158110  71.9332970
  60.3407380   3.7208830  71.9080020  59.8786750   3.9291850  72.7199960
  59.9385490   2.9068180  71.6050690  65.3411890   4.9417780  73.0376680
  64.4905480   4.6423530  73.3585750  65.1813680   5.1859790  72.1260500
  62.4361600   6.4419530  75.1375470  62.7615010   5.6083280  74.7977700
  63.2241930   6.9648050  75.2853800  55.8451790   5.9773880  64.0325950
  55.6192710   5.7611050  64.9372570  55.0644320   6.4102340  63.6871920
  63.0749550   5.9837250  62.6316600  62.4758440   6.7073050  62.4480220
  63.6229160   5.9214030  61.8493050  58.2851000   6.8759460  74.6986220
  58.1894600   5.9354190  74.5486620  59.1282980   7.0974530  74.3034290
  61.6814420   4.6200790  64.6619880  62.0743990   4.9372990  63.8488570
  62.0431270   3.7412670  64.7764400  53.4161540   3.2873130  72.8520000
  53.0224930   4.1348340  73.0592780  52.7279940   2.6499500  73.0428640
  50.9048820   5.1521710  58.0952800  50.8223490   6.0952470  58.2367790
  50.5531880   5.0096620  57.2165150  62.2669560   7.2106540  68.7570660
  61.5350680   7.7193350  69.1060760  61.8693900   6.3936520  68.4559440
  58.7046950   3.8860740  67.1623150  58.7083010   3.4450690  66.3127690
  59.5998070   4.2078070  67.2694970  54.5549330   3.7687230  66.1217360
  54.2149380   4.2462460  66.8784410  53.7926650   3.3152350  65.7618460
  58.7667100   4.8872820  60.1529910  58.8879920   4.8459300  61.1015730
  58.3815610   5.7496970  59.9976640  62.7295470   2.6640220  68.1693600
  62.7468210   3.1148870  69.0135450  62.4811050   1.7645860  68.3827040
  57.7788600   7.1973960  59.5513210  57.2105500   6.7492210  58.9249120
  58.4877600   7.5566740  59.0178360  52.8557780  11.0985980  73.4279940
  52.4712570  10.4579650  74.0262900  53.1669970  11.8022100  73.9974670
  59.0054920   7.9462520  68.9088560  59.3725050   7.4721090  69.6549900
  58.8159980   8.8204090  69.2496900  51.8695410   2.6906210  65.0382030
  51.5842330   2.3261880  65.8760650  51.8074270   1.9586670  64.4245170
  56.7954290   6.9871160  71.2272770  56.4911360   7.8663140  71.4523130
  57.7500750   7.0470950  71.2630210  55.3236080  11.1932150  61.8239620
  54.5498340  10.6529770  61.6638340  56.0530710  10.6738760  61.4857380
  66.0824060  10.1897510  67.6166010  66.8023180  10.6852800  67.2262120
  65.8805880   9.5115400  66.9719880  61.4642860  10.2606570  73.5035010
  61.3980170   9.3402240  73.2492600  60.8348000  10.3582010  74.2179650
  64.2582390   5.9555120  60.0557560  65.1462010   6.2672350  59.8808900
  64.2287480   5.0827370  59.6638140  55.3673480  10.8612530  65.4618430
  55.8852150  10.0580790  65.4075320  54.9157500  10.7991670  66.3035260
  60.2542980  12.1278810  60.7345730  60.5958680  12.8721040  60.2389050
  59.4255690  12.4409930  61.0970560  52.8518020   7.8273900  72.3744130
  52.4932960   8.4927750  72.9617470  52.5572580   6.9957450  72.7456750
  56.0531140   8.2858140  75.2583680  55.7531280   8.4315320  74.3611500
  56.8242380   7.7263430  75.1657070  61.3959590  13.0827140  73.2538810
  61.4104130  12.1508100  73.0357720  60.6884690  13.1686900  73.8928580
  66.5296660   7.2666960  59.5237420  66.4460380   7.6981180  58.6733860
  67.2490850   7.7265310  59.9564240  67.6070800   9.7234480  72.6007390
  66.8818990  10.3163260  72.4036780  68.1346260   9.7158020  71.8020760
  67.5583910  14.1209220  62.2519550  66.9160070  13.4664840  62.5263270
  67.1714570  14.5264310  61.4760220  63.1370390  11.4494650  66.0991240
  63.4894210  10.8522780  65.4392610  62.2532720  11.1238880  66.2699490
  59.2233670  12.2092340  63.5061650  59.9104800  12.7561550  63.8869240
  58.4366090  12.7533070  63.5411260  51.3626070   7.8265160  58.9978730
  52.2320920   8.1089960  59.2814650  50.8716390   8.6401030  58.8827540
  58.5260880   9.2138370  63.1187010  58.9823660  10.0243620  63.3447200
  58.1749090   8.8961510  63.9505500  60.8293490  14.7244710  70.3479310
  61.4735710  14.9304090  71.0252730  61.1922930  13.9633110  69.8950160
  62.1025570  12.7277060  69.0656760  62.7447800  12.0270220  69.1788930
  62.6274920  13.5075500  68.8853650  65.9481290  13.0125680  58.7895900
  65.7218870  12.2956120  59.3820540  65.5577490  12.7638120  57.9517650
  63.8763190  13.5271960  72.2692820  64.2119430  14.1138650  72.9470740
  62.9563530  13.3964670  72.4990610  51.7297320  17.0392540  59.5640360
  52.0894960  17.6381880  58.9097630  51.5889660  17.5852430  60.3375390
  65.5297540  10.9297620  60.4510060  65.2419240  11.3910310  61.2387940
  66.3249710  10.4695390  60.7194280  51.7139180  15.3047400  74.0382760
  51.8230300  14.3642140  73.8978150  51.0619740  15.5702150  73.3896490
  59.7051770  13.5763290  75.4380880  59.3848640  12.8572530  75.9826570
  59.0310130  14.2518360  75.5116940  57.7465940  14.4223740  60.3814030
  57.7376040  15.1553430  59.7658540  56.8264300  14.1755320  60.4740990
  53.3472580   9.6438630  61.1260790  52.7400530  10.3837530  61.1356090
  53.8221930   9.7337990  60.2998990  62.9205370   3.8089450  70.8017680
  63.2886190   2.9884660  71.1297250  62.0603570   3.8691340  71.2173330
  66.2867400   2.7646390  61.6105240  65.6580560   2.8692060  60.8963470
  65.7919320   2.9843170  62.3999120  60.7325540  14.4851980  59.0439220
  60.8337520  14.2815970  58.1141200  59.8327280  14.2310260  59.2487000
  58.2551430   5.0432340  63.0263120  57.5467580   5.5118680  63.4676730
  58.5395910   4.3854350  63.6608310  59.8807360   6.4629040  71.0255650
  60.3792610   6.9374860  71.6907500  60.0230310   5.5392560  71.2325680
  62.2866860   1.7683000  64.4658910  62.1634640   1.7869130  63.5168420
  63.2351420   1.8161940  64.5857310  59.3743650  17.0038300  63.7386890
  59.6285150  16.9659690  62.8166260  58.4256130  16.8771630  63.7315140
  56.4586450   3.3517420  60.4013830  57.3076980   3.7887570  60.3354020
  56.0917720   3.6637680  61.2285890  67.0874220   2.6797000  71.8684040
  66.5847820   3.4202400  72.2077850  67.9030880   3.0681000  71.5520830
  65.3796230   7.9230180  65.3145400  64.4386370   7.9380410  65.4893090
  65.6940300   7.1366140  65.7605700  55.3577870   9.6049780  58.8749360
  56.1241140   9.4931140  59.4374790  55.4352560   8.9087750  58.2226130
  54.0524630   7.0374850  59.5582250  54.1328220   6.0902360  59.6699650
  54.9444380   7.3681730  59.6642910  67.3821810  15.0939030  66.9899660
  67.5069230  15.9170200  67.4623470  68.2487370  14.8829760  66.6423810
  54.8539340  17.1870240  66.6616790  55.5901820  16.6385700  66.9325360
  55.2380260  18.0526250  66.5222780  51.7384820  13.2543810  62.5358300
  50.8124600  13.4964950  62.5263710  52.2041250  14.0818070  62.4143050
  57.9641650  16.3600550  58.4842360  58.7570260  16.6489380  58.0324150
  57.4446000  15.9292720  57.8054840  64.1262620  16.2076470  74.4087190
  65.0784370  16.1234490  74.3587430  63.9790840  16.8718180  75.0820980
  67.0171820  15.5870680  59.9079100  66.7313330  15.1735820  59.0933280
  66.8191370  16.5158390  59.7879620  51.5795430   8.8589770  74.7938420
  52.0834450   8.2797050  75.3654650  50.8402850   9.1430000  75.3314790
  58.4819050  11.5803960  58.3484710  58.3769690  10.9656310  59.0746090
  58.3143270  11.0569850  57.5647720  58.6333370  10.2660760  74.3273940
  57.8679040  10.8345760  74.2428610  58.8149330   9.9736970  73.4342170
  61.7221780  10.6423990  58.9526700  61.1731880  11.0893290  59.5969440
  62.3441040  10.1373240  59.4764370  65.7756720  11.9966090  74.8848960
  66.5166190  12.3341850  74.3816420  65.0129400  12.1658150  74.3318730
  57.3896900   9.6014910  60.8492000  57.8113320   9.4354780  61.6923390
  57.5147740   8.7915140  60.3547140  55.5524320   5.5811460  73.6562980
  55.0220780   5.0902410  73.0286320  56.2212390   6.0095660  73.1220910
  59.9024540   8.6252520  58.0969100  60.4230200   7.9101540  57.7310250
  60.5492940   9.2638390  58.3969610  64.4502380  10.0480920  73.4204170
  64.8643400  10.2026000  74.2694590  63.5153380  10.1736140  73.5829950
  64.9224550   7.3877080  75.4243320  65.5045320   6.6329400  75.3363800
  65.0986320   7.9184520  74.6474800  56.0396620   2.5473830  73.7360270
  55.9453490   1.9294580  73.0111140  55.4594010   3.2740120  73.5090180
  59.2117610  10.0001400  71.3900100  59.6305720  10.8434130  71.2176340
  58.2926240  10.1373440  71.1606880  61.5481510   7.7317580  72.7737940
  61.6677720   7.1358720  73.5132780  62.4075510   7.7687270  72.3539240
  63.8869410   8.2854770  71.3500450  63.3604630   8.8097390  70.7465590
  64.2300750   8.9182160  71.9810180  56.2855800   5.6748140  57.7950160
  56.0844860   4.8115500  58.1563500  56.1147850   5.5881500  56.8571760
  57.0625030  16.3054410  72.5057830  56.5246120  17.0300470  72.1866530
  57.3158990  15.8284750  71.7155170  58.3150280   4.2738930  74.0313760
  58.9049970   3.9654780  74.7191580  57.4970520   3.8018680  74.1873660
  63.1343710   3.8904740  74.2646780  62.4459230   3.2286280  74.1996770
  63.8549730   3.4443010  74.7095240  55.0838600   2.7748760  57.7828040
  55.3864500   2.7816190  56.8747190  55.8233190   2.4246620  58.2795700
  59.9187240  17.5405620  72.7644480  59.8445940  18.4440760  73.0716850
  59.0166080  17.2217520  72.7366550  60.4672570  16.7064130  60.3870840
  61.3623360  17.0449100  60.4089600  60.4990200  15.9843540  59.7595120
  54.1068730  12.0791180  58.6157840  54.5443600  12.6220850  59.2715420
  54.5916460  11.2538130  58.6254180  51.3214530  14.8680210  66.0678100
  51.6517540  14.0001270  65.8356740  51.7505530  15.0738730  66.8983060
  55.9176450  13.1989220  63.7280070  55.6171990  13.0754190  64.6283980
  55.8113940  12.3397810  63.3195800  51.8104740  15.7350800  68.8059730
  51.3735730  15.9151600  69.6383880  52.3782420  16.4925420  68.6641450
  67.4466920  15.2367800  73.0937040  66.8468910  15.2960360  72.3500960
  67.5760820  14.2972780  73.2233890  68.6868370  12.9785620  58.4306750
  67.8561330  13.0462270  58.9013980  68.8640200  13.8689740  58.1273610
  68.1424830   9.7233100  60.9340950  68.9043740  10.2929750  61.0400640
  68.1579200   9.1560300  61.7049260  51.6429170   8.2471030  65.1648610
  50.9878010   7.9782670  64.5208310  52.4807120   8.1375510  64.7150590
  69.1484800  10.5783200  65.7782880  69.5193630   9.7950520  65.3718850
  69.7886730  11.2672300  65.6000180  66.1318560  11.9619780  71.1913200
  65.3178400  12.3916940  71.4538990  66.5392760  12.5738190  70.5782250
  68.1944000  10.0167470  58.0913470  68.4692840  10.9246350  57.9632690
  68.0054740   9.9530000  59.0275460  64.5919610   3.0412320  59.3867100
  65.0104490   2.8543300  58.5463760  64.2855670   2.1891370  59.6970030
  68.0909340   7.9536460  63.0842900  67.7152940   7.1864390  62.6524190
  67.3612460   8.3359160  63.5717830  52.6805100   8.6323600  69.7051950
  53.0478140   8.5451000  70.5847970  52.1115920   7.8690150  69.6058810
  67.4808960   7.1007980  72.7182420  67.2495050   6.8720730  71.8180370
  67.7413510   8.0207530  72.6727310  52.2321100   5.5432690  73.6110370
  51.3377150   5.5099450  73.9504080  52.7718650   5.7419480  74.3761620
  65.9197030   2.3264410  75.4962120  66.7967210   2.3347810  75.8796120
  65.9317870   1.5895250  74.8854470  50.8567250   5.4569960  61.1073940
  49.9531330   5.7200160  60.9325600  51.3407870   5.7281130  60.3273900
  67.3660300   6.1793950  66.3850140  67.8897780   5.6856600  65.7540310
  67.9519720   6.3144310  67.1297710  67.5450020   6.2633820  69.9069690
  66.5952730   6.2297360  70.0214680  67.7263030   7.1733930  69.6719460
  53.3994460   4.5135500  59.0168320  54.1086160   4.0918720  58.5315600
  52.6834400   4.5810730  58.3851670  66.8560270   5.4367300  62.3242550
  67.3519390   5.2038170  63.1091430  66.6576340   4.5979140  61.9080190
  68.2847430   4.0728250  64.8580230  68.1746710   3.9184290  65.7962500
  69.0455020   3.5449190  64.6155640  69.1737700   1.9036170  58.0986370
  70.0987010   1.7717350  57.8904660  69.1513490   1.9828990  59.0522820
  69.2476190   2.6746830  60.7243080  68.4527690   2.6091950  61.2535990
  69.4519470   3.6097470  60.7128430  66.1894610  16.7138380  64.7181470
  66.7853680  16.3922950  64.0415890  66.4472760  16.2410200  65.5094740
  54.0957180  13.1456290  74.8672100  54.0526810  12.7749200  75.7486560
  54.2268190  14.0833860  75.0073920  57.7963210  14.7015880  70.4681820
  57.5554570  14.9690440  69.5812340  58.7365850  14.8721610  70.5232680
  69.0567370  16.7210260  71.2692460  68.5625650  17.1179130  70.5519590
  68.4480660  16.0959470  71.6629740  53.9345210  16.0918540  71.9869880
  53.3405530  15.9603240  72.7259920  53.9269050  15.2556680  71.5211980
  66.7406820  17.3633680  68.5479200  66.2809790  18.1149490  68.1737220
  66.1119280  16.6440150  68.4894000  53.5657440  13.4576920  70.9377920
  52.8391500  12.8382210  70.8703870  53.6266590  13.8517530  70.0676000
  57.1702540  15.6721920  67.7227330  57.6867560  15.0609280  67.1975590
  57.8199920  16.1750700  68.2138340  59.9098040  16.5630410  68.5496310
  60.1975850  16.3084710  67.6729320  60.4221260  16.0107770  69.1401880
  51.8487440  16.7751310  64.1474680  51.6809480  16.1421990  64.8456570
  50.9821950  16.9810710  63.7968870  59.0129270   2.7207360  64.6408850
  58.2003780   2.3464250  64.3004730  59.5170910   1.9652440  64.9430040
  53.4550140  15.4684540  61.5924820  52.9297760  15.8492570  60.8886780
  53.3794720  16.0935310  62.3134530  59.9770400  17.4846510  75.9164510
  60.9037710  17.2490780  75.9600470  59.9620830  18.3118510  75.4350540
  68.2115460  17.0272080  62.9138760  68.3867650  16.3409820  62.2699680
  67.5137030  17.5519130  62.5215430  56.0543110  17.4166920  60.4674070
  56.7861930  17.1326200  59.9197960  56.3136780  17.1780200  61.3573450
  55.2157900  13.5331650  60.4720400  54.5866780  14.0016750  61.0206230
  55.3305730  12.6880870  60.9066590  62.6707620   7.5837310  46.6221600
  62.5901670   6.6691920  46.3513310  62.2572040   8.0804380  45.9161310
  60.8025660   9.3616330  48.5030870  60.0267760   8.8816770  48.7929440
  61.4538590   8.6821980  48.3287030  54.8191490   9.6736140  49.3806630
  53.9876370   9.4184850  49.7803140  55.4272470   9.7446910  50.1164550
  64.8233090  13.7676520  47.2830000  64.3614620  12.9963760  47.6117170
  65.6358640  13.7942590  47.7882450  54.7992750  13.7076230  49.5764650
  55.1020790  12.8173970  49.3974870  55.5436340  14.2646450  49.3486900
  53.2283440   4.6338030  43.1649020  52.3400140   4.9754000  43.0628900
  53.5124630   4.4338350  42.2729850  51.1916450   7.2343680  49.0488720
  51.7632560   6.4665880  49.0492360  51.1917990   7.5332440  48.1395330
  61.0496400  16.0534530  46.9033990  60.4307840  16.5092030  46.3328430
  61.9048180  16.2085990  46.5023690  60.2434650  12.0373520  48.5101030
  60.1742930  11.0963460  48.3490160  61.0054510  12.1274930  49.0823600
  52.4341320   2.6428040  50.8357650  52.2544160   1.7453790  51.1160410
  52.0321400   3.1899910  51.5104600  61.2739820   4.8443900  48.7369960
  61.6504640   3.9715780  48.6243630  61.1759330   5.1802600  47.8460400
  55.4044830   3.2169530  44.1987400  55.5111580   4.1173260  44.5056160
  54.4937190   3.1687500  43.9082050  65.0563940   2.3394340  45.6698300
  65.8773560   1.8490910  45.7123780  65.0898020   2.9292000  46.4230140
  53.0527990   5.1388540  49.4439990  53.7338100   5.4026910  50.0627390
  52.7376040   4.2989410  49.7778000  57.2452560   6.1855900  48.5312580
  57.7530780   6.6836870  49.1717600  57.7765800   5.4091100  48.3551940
  69.3463490   4.3561090  52.2341930  68.6415660   4.7442800  51.7157040
  69.6121410   5.0511380  52.8362860  61.9159750  10.9373770  44.2965900
  61.2977020  11.4023220  43.7328620  62.4283000  11.6301250  44.7135410
  56.7791510  10.4649640  50.9749500  56.4460890  11.0918560  51.6170570
  56.9558190  10.9911520  50.1951170  65.2925420   4.2794720  48.4425840
  64.5880990   4.5679610  49.0228950  65.6537580   5.0894830  48.0825400
  55.2103990   2.5364420  50.8046450  55.5520800   3.3806470  50.5100320
  54.2719800   2.6848160  50.9211790  55.9910610  12.4330440  52.7898680
  56.6084610  13.1081520  52.5083130  55.1303730  12.8418420  52.6986180
  51.2842950  11.6230300  41.6705530  50.9070930  12.1117400  40.9390430
  51.5416020  12.2955580  42.3012060  66.9088200  13.8969850  50.7053320
  66.2251720  14.5668960  50.6969990  67.4482490  14.0950500  49.9398180
  68.3612340   3.7249510  48.8335050  67.4137250   3.7588490  48.9650480
  68.6862330   4.5388460  49.2184410  64.4446940  15.7413980  49.4198500
  64.4574100  15.3376270  48.5520760  63.8922160  16.5161270  49.3159930
  65.7392360  12.4630200  44.5088670  65.6288690  11.5204530  44.6338090
  65.7360610  12.8245840  45.3951430  63.8432380  10.6443820  50.7481110
  64.2601170  10.4303930  49.9134570  64.5672200  10.9016610  51.3189730
  61.2812640   8.0895520  43.8651160  60.3541920   8.0232900  44.0939630
  61.4337460   9.0275650  43.7506400  61.2681720   4.3612520  40.8618320
  60.3285390   4.5226480  40.9470780  61.5864980   5.0798200  40.3154310
  67.7894480   9.0431040  50.8397350  66.9613110   9.1124130  50.3647480
  68.3844960   9.6285350  50.3713180  65.3109930   9.6515820  44.3686410
  64.6922350   9.3135370  43.7212710  65.2934380   9.0075580  45.0765600
  64.7536490   5.8300360  51.7852220  64.3407670   6.6554070  52.0392210
  64.0212440   5.2445400  51.5928580  56.8869280   8.6160260  46.6470890
  56.4826280   7.9037510  46.1516790  56.9732400   8.2713500  47.5358930
  57.3550980  12.3027820  48.8110100  57.0579270  11.6973290  48.1317880
  58.3050800  12.3405130  48.6999460  55.5997900   5.3903470  50.4269930
  56.1512490   5.4998810  49.6523180  56.1141410   5.7641070  51.1425160
  65.4436590  15.8759690  52.4733200  64.9667150  16.6831880  52.2805810
  64.7598380  15.2238020  52.6259410  56.4469410  12.0409510  55.4617900
  55.5497940  12.2649480  55.7091300  56.4722280  12.1644450  54.5129300
  63.4874630   8.8902630  41.3759160  63.9267910   8.0525060  41.2296980
  64.2003050   9.5232030  41.4623300  55.2740630   8.9122830  54.0375270
  55.1348400   9.7845630  54.4062670  54.3921990   8.5695640  53.8923210
  61.5970010  13.8298700  45.3440400  62.0365920  14.5723030  44.9295790
  61.5356900  14.0725270  46.2679360  57.0720980  14.8544530  56.2460420
  57.0436410  15.2587480  55.3788850  56.9085950  13.9254890  56.0832020
  53.5873910   7.5105240  44.1477540  53.4671510   8.2367330  43.5358810
  53.2774800   6.7408150  43.6705450  69.0235800  15.6371630  57.5424590
  69.4995520  16.1154520  58.2213670  69.6442960  15.5689120  56.8170090
  51.2259280  10.6820380  49.9546180  51.3039700  10.8169150  49.0101900
  51.8400960   9.9736270  50.1474300  52.4706910  12.3820570  46.3652360
  52.0634990  12.5235160  45.5105960  53.3619920  12.0980730  46.1623570
  68.4269050  12.8284480  54.7024600  68.5532110  12.5896360  53.7841780
  68.4690430  11.9969020  55.1746680  62.2885790  16.5312480  53.2719410
  62.8030460  16.4420490  54.0741840  61.4454870  16.8772180  53.5647320
  64.2640190  16.8167820  42.7003410  64.1041330  16.5270760  43.5985240
  64.0986900  16.0407950  42.1648640  56.7428570  16.5966350  44.4775030
  56.5671050  15.6801890  44.2642830  55.8884310  16.9553640  44.7172830
  63.9666320  14.3255380  41.2601410  63.2731480  14.3232670  40.6003690
  64.7089180  13.9014700  40.8295580  63.5316250  15.9518090  45.3349900
  63.9873200  15.1707470  45.6488520  63.8708770  16.6624910  45.8791080
  68.2793060   4.8816940  55.6674340  67.6637330   5.3896610  55.1389800
  67.9589480   3.9815270  55.6100280  51.2818800  11.7234550  52.4940640
  51.4449840  11.2539910  51.6760010  51.7471250  11.2158110  53.1589480
  60.3407380   3.7208830  53.1336530  59.8786750   3.9291850  53.9456470
  59.9385490   2.9068180  52.8307200  65.3411890   4.9417780  54.2633190
  64.4905480   4.6423530  54.5842260  65.1813680   5.1859790  53.3517010
  62.4361600   6.4419530  56.3631980  62.7615010   5.6083280  56.0234210
  63.2241930   6.9648050  56.5110310  55.8451790   5.9773880  45.2582460
  55.6192710   5.7611050  46.1629080  55.0644320   6.4102340  44.9128430
  63.0749550   5.9837250  43.8573110  62.4758440   6.7073050  43.6736730
  63.6229160   5.9214030  43.0749560  58.2851000   6.8759460  55.9242730
  58.1894600   5.9354190  55.7743130  59.1282980   7.0974530  55.5290800
  61.6814420   4.6200790  45.8876390  62.0743990   4.9372990  45.0745080
  62.0431270   3.7412670  46.0020910  53.4161540   3.2873130  54.0776510
  53.0224930   4.1348340  54.2849290  52.7279940   2.6499500  54.2685150
  59.9906590   3.3708100  57.1473250  59.3004910   3.1780300  57.7819340
  60.7338890   3.6542740  57.6797550  50.9048820   5.1521710  39.3209310
  50.8223490   6.0952470  39.4624300  50.5531880   5.0096620  38.4421660
  62.2669560   7.2106540  49.9827170  61.5350680   7.7193350  50.3317270
  61.8693900   6.3936520  49.6815950  58.7046950   3.8860740  48.3879660
  58.7083010   3.4450690  47.5384200  59.5998070   4.2078070  48.4951480
  54.5549330   3.7687230  47.3473870  54.2149380   4.2462460  48.1040920
  53.7926650   3.3152350  46.9874970  58.7667100   4.8872820  41.3786420
  58.8879920   4.8459300  42.3272240  58.3815610   5.7496970  41.2233150
  62.7295470   2.6640220  49.3950110  62.7468210   3.1148870  50.2391960
  62.4811050   1.7645860  49.6083550  57.7788600   7.1973960  40.7769720
  57.2105500   6.7492210  40.1505630  58.4877600   7.5566740  40.2434870
  52.8557780  11.0985980  54.6536450  52.4712570  10.4579650  55.2519410
  53.1669970  11.8022100  55.2231180  59.0054920   7.9462520  50.1345070
  59.3725050   7.4721090  50.8806410  58.8159980   8.8204090  50.4753410
  51.8695410   2.6906210  46.2638540  51.5842330   2.3261880  47.1017160
  51.8074270   1.9586670  45.6501680  56.7954290   6.9871160  52.4529280
  56.4911360   7.8663140  52.6779640  57.7500750   7.0470950  52.4886720
  55.3236080  11.1932150  43.0496130  54.5498340  10.6529770  42.8894850
  56.0530710  10.6738760  42.7113890  66.0824060  10.1897510  48.8422520
  66.8023180  10.6852800  48.4518630  65.8805880   9.5115400  48.1976390
  61.4642860  10.2606570  54.7291520  61.3980170   9.3402240  54.4749110
  60.8348000  10.3582010  55.4436160  64.2582390   5.9555120  41.2814070
  65.1462010   6.2672350  41.1065410  64.2287480   5.0827370  40.8894650
  55.3673480  10.8612530  46.6874940  55.8852150  10.0580790  46.6331830
  54.9157500  10.7991670  47.5291770  60.2542980  12.1278810  41.9602240
  60.5958680  12.8721040  41.4645560  59.4255690  12.4409930  42.3227070
  52.8518020   7.8273900  53.6000640  52.4932960   8.4927750  54.1873980
  52.5572580   6.9957450  53.9713260  56.0531140   8.2858140  56.4840190
  55.7531280   8.4315320  55.5868010  56.8242380   7.7263430  56.3913580
  61.3959590  13.0827140  54.4795320  61.4104130  12.1508100  54.2614230
  60.6884690  13.1686900  55.1185090  66.5296660   7.2666960  40.7493930
  66.4460380   7.6981180  39.8990370  67.2490850   7.7265310  41.1820750
  67.6070800   9.7234480  53.8263900  66.8818990  10.3163260  53.6293290
  68.1346260   9.7158020  53.0277270  67.5583910  14.1209220  43.4776060
  66.9160070  13.4664840  43.7519780  67.1714570  14.5264310  42.7016730
  63.1370390  11.4494650  47.3247750  63.4894210  10.8522780  46.6649120
  62.2532720  11.1238880  47.4956000  59.2233670  12.2092340  44.7318160
  59.9104800  12.7561550  45.1125750  58.4366090  12.7533070  44.7667770
  51.3626070   7.8265160  40.2235240  52.2320920   8.1089960  40.5071160
  50.8716390   8.6401030  40.1084050  58.5260880   9.2138370  44.3443520
  58.9823660  10.0243620  44.5703710  58.1749090   8.8961510  45.1762010
  60.8293490  14.7244710  51.5735820  61.4735710  14.9304090  52.2509240
  61.1922930  13.9633110  51.1206670  62.1025570  12.7277060  50.2913270
  62.7447800  12.0270220  50.4045440  62.6274920  13.5075500  50.1110160
  65.9481290  13.0125680  40.0152410  65.7218870  12.2956120  40.6077050
  65.5577490  12.7638120  39.1774160  63.8763190  13.5271960  53.4949330
  64.2119430  14.1138650  54.1727250  62.9563530  13.3964670  53.7247120
  51.7297320  17.0392540  40.7896870  52.0894960  17.6381880  40.1354140
  51.5889660  17.5852430  41.5631900  65.5297540  10.9297620  41.6766570
  65.2419240  11.3910310  42.4644450  66.3249710  10.4695390  41.9450790
  51.7139180  15.3047400  55.2639270  51.8230300  14.3642140  55.1234660
  51.0619740  15.5702150  54.6153000  59.7051770  13.5763290  56.6637390
  59.3848640  12.8572530  57.2083080  59.0310130  14.2518360  56.7373450
  57.7465940  14.4223740  41.6070540  57.7376040  15.1553430  40.9915050
  56.8264300  14.1755320  41.6997500  53.3472580   9.6438630  42.3517300
  52.7400530  10.3837530  42.3612600  53.8221930   9.7337990  41.5255500
  62.9205370   3.8089450  52.0274190  63.2886190   2.9884660  52.3553760
  62.0603570   3.8691340  52.4429840  66.2867400   2.7646390  42.8361750
  65.6580560   2.8692060  42.1219980  65.7919320   2.9843170  43.6255630
  60.7325540  14.4851980  40.2695730  60.8337520  14.2815970  39.3397710
  59.8327280  14.2310260  40.4743510  58.2551430   5.0432340  44.2519630
  57.5467580   5.5118680  44.6933240  58.5395910   4.3854350  44.8864820
  59.8807360   6.4629040  52.2512160  60.3792610   6.9374860  52.9164010
  60.0230310   5.5392560  52.4582190  62.2866860   1.7683000  45.6915420
  62.1634640   1.7869130  44.7424930  63.2351420   1.8161940  45.8113820
  59.3743650  17.0038300  44.9643400  59.6285150  16.9659690  44.0422770
  58.4256130  16.8771630  44.9571650  56.4586450   3.3517420  41.6270340
  57.3076980   3.7887570  41.5610530  56.0917720   3.6637680  42.4542400
  67.0874220   2.6797000  53.0940550  66.5847820   3.4202400  53.4334360
  67.9030880   3.0681000  52.7777340  65.3796230   7.9230180  46.5401910
  64.4386370   7.9380410  46.7149600  65.6940300   7.1366140  46.9862210
  55.3577870   9.6049780  40.1005870  56.1241140   9.4931140  40.6631300
  55.4352560   8.9087750  39.4482640  54.0524630   7.0374850  40.7838760
  54.1328220   6.0902360  40.8956160  54.9444380   7.3681730  40.8899420
  67.3821810  15.0939030  48.2156170  67.5069230  15.9170200  48.6879980
  68.2487370  14.8829760  47.8680320  54.8539340  17.1870240  47.8873300
  55.5901820  16.6385700  48.1581870  55.2380260  18.0526250  47.7479290
  51.7384820  13.2543810  43.7614810  50.8124600  13.4964950  43.7520220
  52.2041250  14.0818070  43.6399560  53.8597620  16.3716310  57.0758880
  54.6610350  16.6928360  57.4894280  53.3449440  16.0111890  57.7978790
  57.9641650  16.3600550  39.7098870  58.7570260  16.6489380  39.2580660
  57.4446000  15.9292720  39.0311350  62.6962250  12.4796180  57.0234290
  62.0900410  12.5027780  56.2830040  62.3916360  11.7479220  57.5601540
  64.1262620  16.2076470  55.6343700  65.0784370  16.1234490  55.5843940
  63.9790840  16.8718180  56.3077490  67.0171820  15.5870680  41.1335610
  66.7313330  15.1735820  40.3189790  66.8191370  16.5158390  41.0136130
  51.5795430   8.8589770  56.0194930  52.0834450   8.2797050  56.5911160
  50.8402850   9.1430000  56.5571300  58.4819050  11.5803960  39.5741220
  58.3769690  10.9656310  40.3002600  58.3143270  11.0569850  38.7904230
  58.6333370  10.2660760  55.5530450  57.8679040  10.8345760  55.4685120
  58.8149330   9.9736970  54.6598680  61.7221780  10.6423990  40.1783210
  61.1731880  11.0893290  40.8225950  62.3441040  10.1373240  40.7020880
  65.7756720  11.9966090  56.1105470  66.5166190  12.3341850  55.6072930
  65.0129400  12.1658150  55.5575240  53.6118510   7.0019360  56.9145000
  53.6523850   6.7033230  57.8230230  54.4664010   7.4026970  56.7552520
  57.3896900   9.6014910  42.0748510  57.8113320   9.4354780  42.9179900
  57.5147740   8.7915140  41.5803650  55.5524320   5.5811460  54.8819490
  55.0220780   5.0902410  54.2542830  56.2212390   6.0095660  54.3477420
  59.9024540   8.6252520  39.3225610  60.4230200   7.9101540  38.9566760
  60.5492940   9.2638390  39.6226120  64.4502380  10.0480920  54.6460680
  64.8643400  10.2026000  55.4951100  63.5153380  10.1736140  54.8086460
  64.9224550   7.3877080  56.6499830  65.5045320   6.6329400  56.5620310
  65.0986320   7.9184520  55.8731310  56.0396620   2.5473830  54.9616780
  55.9453490   1.9294580  54.2367650  55.4594010   3.2740120  54.7346690
  59.2117610  10.0001400  52.6156610  59.6305720  10.8434130  52.4432850
  58.2926240  10.1373440  52.3863390  61.5481510   7.7317580  53.9994450
  61.6677720   7.1358720  54.7389290  62.4075510   7.7687270  53.5795750
  63.8869410   8.2854770  52.5756960  63.3604630   8.8097390  51.9722100
  64.2300750   8.9182160  53.2066690  56.2855800   5.6748140  39.0206670
  56.0844860   4.8115500  39.3820010  56.1147850   5.5881500  38.0828270
  57.0625030  16.3054410  53.7314340  56.5246120  17.0300470  53.4123040
  57.3158990  15.8284750  52.9411680  58.3150280   4.2738930  55.2570270
  58.9049970   3.9654780  55.9448090  57.4970520   3.8018680  55.4130170
  63.1343710   3.8904740  55.4903290  62.4459230   3.2286280  55.4253280
  63.8549730   3.4443010  55.9351750  55.0838600   2.7748760  39.0084550
  55.3864500   2.7816190  38.1003700  55.8233190   2.4246620  39.5052210
  59.9187240  17.5405620  53.9900990  59.8445940  18.4440760  54.2973360
  59.0166080  17.2217520  53.9623060  60.4672570  16.7064130  41.6127350
  61.3623360  17.0449100  41.6346110  60.4990200  15.9843540  40.9851630
  54.1068730  12.0791180  39.8414350  54.5443600  12.6220850  40.4971930
  54.5916460  11.2538130  39.8510690  51.3214530  14.8680210  47.2934610
  51.6517540  14.0001270  47.0613250  51.7505530  15.0738730  48.1239570
  55.9176450  13.1989220  44.9536580  55.6171990  13.0754190  45.8540490
  55.8113940  12.3397810  44.5452310  51.8104740  15.7350800  50.0316240
  51.3735730  15.9151600  50.8640390  52.3782420  16.4925420  49.8897960
  67.4466920  15.2367800  54.3193550  66.8468910  15.2960360  53.5757470
  67.5760820  14.2972780  54.4490400  68.6868370  12.9785620  39.6563260
  67.8561330  13.0462270  40.1270490  68.8640200  13.8689740  39.3530120
  68.1424830   9.7233100  42.1597460  68.9043740  10.2929750  42.2657150
  68.1579200   9.1560300  42.9305770  51.6429170   8.2471030  46.3905120
  50.9878010   7.9782670  45.7464820  52.4807120   8.1375510  45.9407100
  69.1484800  10.5783200  47.0039390  69.5193630   9.7950520  46.5975360
  69.7886730  11.2672300  46.8256690  66.1318560  11.9619780  52.4169710
  65.3178400  12.3916940  52.6795500  66.5392760  12.5738190  51.8038760
  68.1944000  10.0167470  39.3169980  68.4692840  10.9246350  39.1889200
  68.0054740   9.9530000  40.2531970  64.5919610   3.0412320  40.6123610
  65.0104490   2.8543300  39.7720270  64.2855670   2.1891370  40.9226540
  68.0909340   7.9536460  44.3099410  67.7152940   7.1864390  43.8780700
  67.3612460   8.3359160  44.7974340  52.6805100   8.6323600  50.9308460
  53.0478140   8.5451000  51.8104480  52.1115920   7.8690150  50.8315320
  67.4808960   7.1007980  53.9438930  67.2495050   6.8720730  53.0436880
  67.7413510   8.0207530  53.8983820  52.2321100   5.5432690  54.8366880
  51.3377150   5.5099450  55.1760590  52.7718650   5.7419480  55.6018130
  65.9197030   2.3264410  56.7218630  66.7967210   2.3347810  57.1052630
  65.9317870   1.5895250  56.1110980  50.8567250   5.4569960  42.3330450
  49.9531330   5.7200160  42.1582110  51.3407870   5.7281130  41.5530410
  67.3660300   6.1793950  47.6106650  67.8897780   5.6856600  46.9796820
  67.9519720   6.3144310  48.3554220  67.5450020   6.2633820  51.1326200
  66.5952730   6.2297360  51.2471190  67.7263030   7.1733930  50.8975970
  53.3994460   4.5135500  40.2424830  54.1086160   4.0918720  39.7572110
  52.6834400   4.5810730  39.6108180  66.8560270   5.4367300  43.5499060
  67.3519390   5.2038170  44.3347940  66.6576340   4.5979140  43.1336700
  68.2847430   4.0728250  46.0836740  68.1746710   3.9184290  47.0219010
  69.0455020   3.5449190  45.8412150  69.1737700   1.9036170  39.3242880
  70.0987010   1.7717350  39.1161170  69.1513490   1.9828990  40.2779330
  69.2476190   2.6746830  41.9499590  68.4527690   2.6091950  42.4792500
  69.4519470   3.6097470  41.9384940  66.1894610  16.7138380  45.9437980
  66.7853680  16.3922950  45.2672400  66.4472760  16.2410200  46.7351250
  54.0957180  13.1456290  56.0928610  54.0526810  12.7749200  56.9743070
  54.2268190  14.0833860  56.2330430  57.7963210  14.7015880  51.6938330
  57.5554570  14.9690440  50.8068850  58.7365850  14.8721610  51.7489190
  69.0567370  16.7210260  52.4948970  68.5625650  17.1179130  51.7776100
  68.4480660  16.0959470  52.8886250  53.9345210  16.0918540  53.2126390
  53.3405530  15.9603240  53.9516430  53.9269050  15.2556680  52.7468490
  66.7406820  17.3633680  49.7735710  66.2809790  18.1149490  49.3993730
  66.1119280  16.6440150  49.7150510  53.5657440  13.4576920  52.1634430
  52.8391500  12.8382210  52.0960380  53.6266590  13.8517530  51.2932510
  57.1702540  15.6721920  48.9483840  57.6867560  15.0609280  48.4232100
  57.8199920  16.1750700  49.4394850  59.9098040  16.5630410  49.7752820
  60.1975850  16.3084710  48.8985830  60.4221260  16.0107770  50.3658390
  51.8487440  16.7751310  45.3731190  51.6809480  16.1421990  46.0713080
  50.9821950  16.9810710  45.0225380  59.0129270   2.7207360  45.8665360
  58.2003780   2.3464250  45.5261240  59.5170910   1.9652440  46.1686550
  53.4550140  15.4684540  42.8181330  52.9297760  15.8492570  42.1143290
  53.3794720  16.0935310  43.5391040  59.9770400  17.4846510  57.1421020
  60.9037710  17.2490780  57.1856980  59.9620830  18.3118510  56.6607050
  68.2115460  17.0272080  44.1395270  68.3867650  16.3409820  43.4956190
  67.5137030  17.5519130  43.7471940  56.0543110  17.4166920  41.6930580
  56.7861930  17.1326200  41.1454470  56.3136780  17.1780200  42.5829960
  55.2157900  13.5331650  41.6976910  54.5866780  14.0016750  42.2462740
  55.3305730  12.6880870  42.1323100  66.5447960  16.7116370  56.9662060
  67.3373280  16.2165600  56.7588020  66.8381110  17.3906510  57.5737670
  62.6707620   7.5837310  27.8478110  62.5901670   6.6691920  27.5769820
  62.2572040   8.0804380  27.1417820  60.8025660   9.3616330  29.7287380
  60.0267760   8.8816770  30.0185950  61.4538590   8.6821980  29.5543540
  54.8191490   9.6736140  30.6063140  53.9876370   9.4184850  31.0059650
  55.4272470   9.7446910  31.3421060  64.8233090  13.7676520  28.5086510
  64.3614620  12.9963760  28.8373680  65.6358640  13.7942590  29.0138960
  54.7992750  13.7076230  30.8021160  55.1020790  12.8173970  30.6231380
  55.5436340  14.2646450  30.5743410  53.2283440   4.6338030  24.3905530
  52.3400140   4.9754000  24.2885410  53.5124630   4.4338350  23.4986360
  51.1916450   7.2343680  30.2745230  51.7632560   6.4665880  30.2748870
  51.1917990   7.5332440  29.3651840  61.0496400  16.0534530  28.1290500
  60.4307840  16.5092030  27.5584940  61.9048180  16.2085990  27.7280200
  60.2434650  12.0373520  29.7357540  60.1742930  11.0963460  29.5746670
  61.0054510  12.1274930  30.3080110  52.4341320   2.6428040  32.0614160
  52.2544160   1.7453790  32.3416920  52.0321400   3.1899910  32.7361110
  61.2739820   4.8443900  29.9626470  61.6504640   3.9715780  29.8500140
  61.1759330   5.1802600  29.0716910  55.4044830   3.2169530  25.4243910
  55.5111580   4.1173260  25.7312670  54.4937190   3.1687500  25.1338560
  65.0563940   2.3394340  26.8954810  65.8773560   1.8490910  26.9380290
  65.0898020   2.9292000  27.6486650  53.0527990   5.1388540  30.6696500
  53.7338100   5.4026910  31.2883900  52.7376040   4.2989410  31.0034510
  57.2452560   6.1855900  29.7569090  57.7530780   6.6836870  30.3974110
  57.7765800   5.4091100  29.5808450  69.3463490   4.3561090  33.4598440
  68.6415660   4.7442800  32.9413550  69.6121410   5.0511380  34.0619370
  61.9159750  10.9373770  25.5222410  61.2977020  11.4023220  24.9585130
  62.4283000  11.6301250  25.9391920  56.7791510  10.4649640  32.2006010
  56.4460890  11.0918560  32.8427080  56.9558190  10.9911520  31.4207680
  65.2925420   4.2794720  29.6682350  64.5880990   4.5679610  30.2485460
  65.6537580   5.0894830  29.3081910  55.2103990   2.5364420  32.0302960
  55.5520800   3.3806470  31.7356830  54.2719800   2.6848160  32.1468300
  55.9910610  12.4330440  34.0155190  56.6084610  13.1081520  33.7339640
  55.1303730  12.8418420  33.9242690  51.2842950  11.6230300  22.8962040
  50.9070930  12.1117400  22.1646940  51.5416020  12.2955580  23.5268570
  66.9088200  13.8969850  31.9309830  66.2251720  14.5668960  31.9226500
  67.4482490  14.0950500  31.1654690  68.3612340   3.7249510  30.0591560
  67.4137250   3.7588490  30.1906990  68.6862330   4.5388460  30.4440920
  64.4446940  15.7413980  30.6455010  64.4574100  15.3376270  29.7777270
  63.8922160  16.5161270  30.5416440  65.7392360  12.4630200  25.7345180
  65.6288690  11.5204530  25.8594600  65.7360610  12.8245840  26.6207940
  63.8432380  10.6443820  31.9737620  64.2601170  10.4303930  31.1391080
  64.5672200  10.9016610  32.5446240  61.2812640   8.0895520  25.0907670
  60.3541920   8.0232900  25.3196140  61.4337460   9.0275650  24.9762910
  61.2681720   4.3612520  22.0874830  60.3285390   4.5226480  22.1727290
  61.5864980   5.0798200  21.5410820  67.7894480   9.0431040  32.0653860
  66.9613110   9.1124130  31.5903990  68.3844960   9.6285350  31.5969690
  65.3109930   9.6515820  25.5942920  64.6922350   9.3135370  24.9469220
  65.2934380   9.0075580  26.3022110  64.7536490   5.8300360  33.0108730
  64.3407670   6.6554070  33.2648720  64.0212440   5.2445400  32.8185090
  56.8869280   8.6160260  27.8727400  56.4826280   7.9037510  27.3773300
  56.9732400   8.2713500  28.7615440  57.3550980  12.3027820  30.0366610
  57.0579270  11.6973290  29.3574390  58.3050800  12.3405130  29.9255970
  55.5997900   5.3903470  31.6526440  56.1512490   5.4998810  30.8779690
  56.1141410   5.7641070  32.3681670  65.4436590  15.8759690  33.6989710
  64.9667150  16.6831880  33.5062320  64.7598380  15.2238020  33.8515920
  56.4469410  12.0409510  36.6874410  55.5497940  12.2649480  36.9347810
  56.4722280  12.1644450  35.7385810  63.4874630   8.8902630  22.6015670
  63.9267910   8.0525060  22.4553490  64.2003050   9.5232030  22.6879810
  55.2740630   8.9122830  35.2631780  55.1348400   9.7845630  35.6319180
  54.3921990   8.5695640  35.1179720  61.5970010  13.8298700  26.5696910
  62.0365920  14.5723030  26.1552300  61.5356900  14.0725270  27.4935870
  57.0720980  14.8544530  37.4716930  57.0436410  15.2587480  36.6045360
  56.9085950  13.9254890  37.3088530  53.5873910   7.5105240  25.3734050
  53.4671510   8.2367330  24.7615320  53.2774800   6.7408150  24.8961960
  69.0235800  15.6371630  38.7681100  69.4995520  16.1154520  39.4470180
  69.6442960  15.5689120  38.0426600  51.2259280  10.6820380  31.1802690
  51.3039700  10.8169150  30.2358410  51.8400960   9.9736270  31.3730810
  52.4706910  12.3820570  27.5908870  52.0634990  12.5235160  26.7362470
  53.3619920  12.0980730  27.3880080  68.4269050  12.8284480  35.9281110
  68.5532110  12.5896360  35.0098290  68.4690430  11.9969020  36.4003190
  62.2885790  16.5312480  34.4975920  62.8030460  16.4420490  35.2998350
  61.4454870  16.8772180  34.7903830  64.2640190  16.8167820  23.9259920
  64.1041330  16.5270760  24.8241750  64.0986900  16.0407950  23.3905150
  56.7428570  16.5966350  25.7031540  56.5671050  15.6801890  25.4899340
  55.8884310  16.9553640  25.9429340  63.9666320  14.3255380  22.4857920
  63.2731480  14.3232670  21.8260200  64.7089180  13.9014700  22.0552090
  63.5316250  15.9518090  26.5606410  63.9873200  15.1707470  26.8745030
  63.8708770  16.6624910  27.1047590  68.2793060   4.8816940  36.8930850
  67.6637330   5.3896610  36.3646310  67.9589480   3.9815270  36.8356790
  51.2818800  11.7234550  33.7197150  51.4449840  11.2539910  32.9016520
  51.7471250  11.2158110  34.3845990  60.3407380   3.7208830  34.3593040
  59.8786750   3.9291850  35.1712980  59.9385490   2.9068180  34.0563710
  65.3411890   4.9417780  35.4889700  64.4905480   4.6423530  35.8098770
  65.1813680   5.1859790  34.5773520  62.4361600   6.4419530  37.5888490
  62.7615010   5.6083280  37.2490720  63.2241930   6.9648050  37.7366820
  55.8451790   5.9773880  26.4838970  55.6192710   5.7611050  27.3885590
  55.0644320   6.4102340  26.1384940  63.0749550   5.9837250  25.0829620
  62.4758440   6.7073050  24.8993240  63.6229160   5.9214030  24.3006070
  58.2851000   6.8759460  37.1499240  58.1894600   5.9354190  36.9999640
  59.1282980   7.0974530  36.7547310  61.6814420   4.6200790  27.1132900
  62.0743990   4.9372990  26.3001590  62.0431270   3.7412670  27.2277420
  53.4161540   3.2873130  35.3033020  53.0224930   4.1348340  35.5105800
  52.7279940   2.6499500  35.4941660  59.9906590   3.3708100  38.3729760
  59.3004910   3.1780300  39.0075850  60.7338890   3.6542740  38.9054060
  50.9048820   5.1521710  20.5465820  50.8223490   6.0952470  20.6880810
  50.5531880   5.0096620  19.6678170  62.2669560   7.2106540  31.2083680
  61.5350680   7.7193350  31.5573780  61.8693900   6.3936520  30.9072460
  58.7046950   3.8860740  29.6136170  58.7083010   3.4450690  28.7640710
  59.5998070   4.2078070  29.7207990  54.5549330   3.7687230  28.5730380
  54.2149380   4.2462460  29.3297430  53.7926650   3.3152350  28.2131480
  58.7667100   4.8872820  22.6042930  58.8879920   4.8459300  23.5528750
  58.3815610   5.7496970  22.4489660  62.7295470   2.6640220  30.6206620
  62.7468210   3.1148870  31.4648470  62.4811050   1.7645860  30.8340060
  57.7788600   7.1973960  22.0026230  57.2105500   6.7492210  21.3762140
  58.4877600   7.5566740  21.4691380  52.8557780  11.0985980  35.8792960
  52.4712570  10.4579650  36.4775920  53.1669970  11.8022100  36.4487690
  59.0054920   7.9462520  31.3601580  59.3725050   7.4721090  32.1062920
  58.8159980   8.8204090  31.7009920  51.8695410   2.6906210  27.4895050
  51.5842330   2.3261880  28.3273670  51.8074270   1.9586670  26.8758190
  56.7954290   6.9871160  33.6785790  56.4911360   7.8663140  33.9036150
  57.7500750   7.0470950  33.7143230  55.3236080  11.1932150  24.2752640
  54.5498340  10.6529770  24.1151360  56.0530710  10.6738760  23.9370400
  66.0824060  10.1897510  30.0679030  66.8023180  10.6852800  29.6775140
  65.8805880   9.5115400  29.4232900  61.4642860  10.2606570  35.9548030
  61.3980170   9.3402240  35.7005620  60.8348000  10.3582010  36.6692670
  64.2582390   5.9555120  22.5070580  65.1462010   6.2672350  22.3321920
  64.2287480   5.0827370  22.1151160  55.3673480  10.8612530  27.9131450
  55.8852150  10.0580790  27.8588340  54.9157500  10.7991670  28.7548280
  60.2542980  12.1278810  23.1858750  60.5958680  12.8721040  22.6902070
  59.4255690  12.4409930  23.5483580  52.8518020   7.8273900  34.8257150
  52.4932960   8.4927750  35.4130490  52.5572580   6.9957450  35.1969770
  56.0531140   8.2858140  37.7096700  55.7531280   8.4315320  36.8124520
  56.8242380   7.7263430  37.6170090  61.3959590  13.0827140  35.7051830
  61.4104130  12.1508100  35.4870740  60.6884690  13.1686900  36.3441600
  66.5296660   7.2666960  21.9750440  66.4460380   7.6981180  21.1246880
  67.2490850   7.7265310  22.4077260  67.6070800   9.7234480  35.0520410
  66.8818990  10.3163260  34.8549800  68.1346260   9.7158020  34.2533780
  67.5583910  14.1209220  24.7032570  66.9160070  13.4664840  24.9776290
  67.1714570  14.5264310  23.9273240  63.1370390  11.4494650  28.5504260
  63.4894210  10.8522780  27.8905630  62.2532720  11.1238880  28.7212510
  59.2233670  12.2092340  25.9574670  59.9104800  12.7561550  26.3382260
  58.4366090  12.7533070  25.9924280  51.3626070   7.8265160  21.4491750
  52.2320920   8.1089960  21.7327670  50.8716390   8.6401030  21.3340560
  58.5260880   9.2138370  25.5700030  58.9823660  10.0243620  25.7960220
  58.1749090   8.8961510  26.4018520  60.8293490  14.7244710  32.7992330
  61.4735710  14.9304090  33.4765750  61.1922930  13.9633110  32.3463180
  62.1025570  12.7277060  31.5169780  62.7447800  12.0270220  31.6301950
  62.6274920  13.5075500  31.3366670  65.9481290  13.0125680  21.2408920
  65.7218870  12.2956120  21.8333560  65.5577490  12.7638120  20.4030670
  63.8763190  13.5271960  34.7205840  64.2119430  14.1138650  35.3983760
  62.9563530  13.3964670  34.9503630  51.7297320  17.0392540  22.0153380
  52.0894960  17.6381880  21.3610650  51.5889660  17.5852430  22.7888410
  65.5297540  10.9297620  22.9023080  65.2419240  11.3910310  23.6900960
  66.3249710  10.4695390  23.1707300  51.7139180  15.3047400  36.4895780
  51.8230300  14.3642140  36.3491170  51.0619740  15.5702150  35.8409510
  59.7051770  13.5763290  37.8893900  59.3848640  12.8572530  38.4339590
  59.0310130  14.2518360  37.9629960  57.7465940  14.4223740  22.8327050
  57.7376040  15.1553430  22.2171560  56.8264300  14.1755320  22.9254010
  53.3472580   9.6438630  23.5773810  52.7400530  10.3837530  23.5869110
  53.8221930   9.7337990  22.7512010  62.9205370   3.8089450  33.2530700
  63.2886190   2.9884660  33.5810270  62.0603570   3.8691340  33.6686350
  66.2867400   2.7646390  24.0618260  65.6580560   2.8692060  23.3476490
  65.7919320   2.9843170  24.8512140  60.7325540  14.4851980  21.4952240
  60.8337520  14.2815970  20.5654220  59.8327280  14.2310260  21.7000020
  58.2551430   5.0432340  25.4776140  57.5467580   5.5118680  25.9189750
  58.5395910   4.3854350  26.1121330  59.8807360   6.4629040  33.4768670
  60.3792610   6.9374860  34.1420520  60.0230310   5.5392560  33.6838700
  62.2866860   1.7683000  26.9171930  62.1634640   1.7869130  25.9681440
  63.2351420   1.8161940  27.0370330  59.3743650  17.0038300  26.1899910
  59.6285150  16.9659690  25.2679280  58.4256130  16.8771630  26.1828160
  56.4586450   3.3517420  22.8526850  57.3076980   3.7887570  22.7867040
  56.0917720   3.6637680  23.6798910  67.0874220   2.6797000  34.3197060
  66.5847820   3.4202400  34.6590870  67.9030880   3.0681000  34.0033850
  65.3796230   7.9230180  27.7658420  64.4386370   7.9380410  27.9406110
  65.6940300   7.1366140  28.2118720  55.3577870   9.6049780  21.3262380
  56.1241140   9.4931140  21.8887810  55.4352560   8.9087750  20.6739150
  54.0524630   7.0374850  22.0095270  54.1328220   6.0902360  22.1212670
  54.9444380   7.3681730  22.1155930  67.3821810  15.0939030  29.4412680
  67.5069230  15.9170200  29.9136490  68.2487370  14.8829760  29.0936830
  54.8539340  17.1870240  29.1129810  55.5901820  16.6385700  29.3838380
  55.2380260  18.0526250  28.9735800  51.7384820  13.2543810  24.9871320
  50.8124600  13.4964950  24.9776730  52.2041250  14.0818070  24.8656070
  53.8597620  16.3716310  38.3015390  54.6610350  16.6928360  38.7150790
  53.3449440  16.0111890  39.0235300  57.9641650  16.3600550  20.9355380
  58.7570260  16.6489380  20.4837170  57.4446000  15.9292720  20.2567860
  62.6962250  12.4796180  38.2490800  62.0900410  12.5027780  37.5086550
  62.3916360  11.7479220  38.7858050  64.1262620  16.2076470  36.8600210
  65.0784370  16.1234490  36.8100450  63.9790840  16.8718180  37.5334000
  67.0171820  15.5870680  22.3592120  66.7313330  15.1735820  21.5446300
  66.8191370  16.5158390  22.2392640  51.5795430   8.8589770  37.2451440
  52.0834450   8.2797050  37.8167670  50.8402850   9.1430000  37.7827810
  58.4819050  11.5803960  20.7997730  58.3769690  10.9656310  21.5259110
  58.3143270  11.0569850  20.0160740  58.6333370  10.2660760  36.7786960
  57.8679040  10.8345760  36.6941630  58.8149330   9.9736970  35.8855190
  61.7221780  10.6423990  21.4039720  61.1731880  11.0893290  22.0482460
  62.3441040  10.1373240  21.9277390  65.7756720  11.9966090  37.3361980
  66.5166190  12.3341850  36.8329440  65.0129400  12.1658150  36.7831750
  53.6118510   7.0019360  38.1401510  53.6523850   6.7033230  39.0486740
  54.4664010   7.4026970  37.9809030  57.3896900   9.6014910  23.3005020
  57.8113320   9.4354780  24.1436410  57.5147740   8.7915140  22.8060160
  55.5524320   5.5811460  36.1076000  55.0220780   5.0902410  35.4799340
  56.2212390   6.0095660  35.5733930  59.9024540   8.6252520  20.5482120
  60.4230200   7.9101540  20.1823270  60.5492940   9.2638390  20.8482630
  64.4502380  10.0480920  35.8717190  64.8643400  10.2026000  36.7207610
  63.5153380  10.1736140  36.0342970  64.9224550   7.3877080  37.8756340
  65.5045320   6.6329400  37.7876820  65.0986320   7.9184520  37.0987820
  56.0396620   2.5473830  36.1873290  55.9453490   1.9294580  35.4624160
  55.4594010   3.2740120  35.9603200  59.2117610  10.0001400  33.8413120
  59.6305720  10.8434130  33.6689360  58.2926240  10.1373440  33.6119900
  61.5481510   7.7317580  35.2250960  61.6677720   7.1358720  35.9645800
  62.4075510   7.7687270  34.8052260  63.8869410   8.2854770  33.8013470
  63.3604630   8.8097390  33.1978610  64.2300750   8.9182160  34.4323200
  56.2855800   5.6748140  20.2463180  56.0844860   4.8115500  20.6076520
  56.1147850   5.5881500  19.3084780  57.0625030  16.3054410  34.9570850
  56.5246120  17.0300470  34.6379550  57.3158990  15.8284750  34.1668190
  58.3150280   4.2738930  36.4826780  58.9049970   3.9654780  37.1704600
  57.4970520   3.8018680  36.6386680  63.1343710   3.8904740  36.7159800
  62.4459230   3.2286280  36.6509790  63.8549730   3.4443010  37.1608260
  55.0838600   2.7748760  20.2341060  55.3864500   2.7816190  19.3260210
  55.8233190   2.4246620  20.7308720  59.9187240  17.5405620  35.2157500
  59.8445940  18.4440760  35.5229870  59.0166080  17.2217520  35.1879570
  60.4672570  16.7064130  22.8383860  61.3623360  17.0449100  22.8602620
  60.4990200  15.9843540  22.2108140  54.1068730  12.0791180  21.0670860
  54.5443600  12.6220850  21.7228440  54.5916460  11.2538130  21.0767200
  51.3214530  14.8680210  28.5191120  51.6517540  14.0001270  28.2869760
  51.7505530  15.0738730  29.3496080  55.9176450  13.1989220  26.1793090
  55.6171990  13.0754190  27.0797000  55.8113940  12.3397810  25.7708820
  51.8104740  15.7350800  31.2572750  51.3735730  15.9151600  32.0896900
  52.3782420  16.4925420  31.1154470  67.4466920  15.2367800  35.5450060
  66.8468910  15.2960360  34.8013980  67.5760820  14.2972780  35.6746910
  68.6868370  12.9785620  20.8819770  67.8561330  13.0462270  21.3527000
  68.8640200  13.8689740  20.5786630  68.1424830   9.7233100  23.3853970
  68.9043740  10.2929750  23.4913660  68.1579200   9.1560300  24.1562280
  51.6429170   8.2471030  27.6161630  50.9878010   7.9782670  26.9721330
  52.4807120   8.1375510  27.1663610  69.1484800  10.5783200  28.2295900
  69.5193630   9.7950520  27.8231870  69.7886730  11.2672300  28.0513200
  66.1318560  11.9619780  33.6426220  65.3178400  12.3916940  33.9052010
  66.5392760  12.5738190  33.0295270  68.1944000  10.0167470  20.5426490
  68.4692840  10.9246350  20.4145710  68.0054740   9.9530000  21.4788480
  64.5919610   3.0412320  21.8380120  65.0104490   2.8543300  20.9976780
  64.2855670   2.1891370  22.1483050  68.0909340   7.9536460  25.5355920
  67.7152940   7.1864390  25.1037210  67.3612460   8.3359160  26.0230850
  52.6805100   8.6323600  32.1564970  53.0478140   8.5451000  33.0360990
  52.1115920   7.8690150  32.0571830  67.4808960   7.1007980  35.1695440
  67.2495050   6.8720730  34.2693390  67.7413510   8.0207530  35.1240330
  52.2321100   5.5432690  36.0623390  51.3377150   5.5099450  36.4017100
  52.7718650   5.7419480  36.8274640  65.9197030   2.3264410  37.9475140
  66.7967210   2.3347810  38.3309140  65.9317870   1.5895250  37.3367490
  50.8567250   5.4569960  23.5586960  49.9531330   5.7200160  23.3838620
  51.3407870   5.7281130  22.7786920  67.3660300   6.1793950  28.8363160
  67.8897780   5.6856600  28.2053330  67.9519720   6.3144310  29.5810730
  67.5450020   6.2633820  32.3582710  66.5952730   6.2297360  32.4727700
  67.7263030   7.1733930  32.1232480  53.3994460   4.5135500  21.4681340
  54.1086160   4.0918720  20.9828620  52.6834400   4.5810730  20.8364690
  66.8560270   5.4367300  24.7755570  67.3519390   5.2038170  25.5604450
  66.6576340   4.5979140  24.3593210  68.2847430   4.0728250  27.3093250
  68.1746710   3.9184290  28.2475520  69.0455020   3.5449190  27.0668660
  69.1737700   1.9036170  20.5499390  70.0987010   1.7717350  20.3417680
  69.1513490   1.9828990  21.5035840  69.2476190   2.6746830  23.1756100
  68.4527690   2.6091950  23.7049010  69.4519470   3.6097470  23.1641450
  66.1894610  16.7138380  27.1694490  66.7853680  16.3922950  26.4928910
  66.4472760  16.2410200  27.9607760  54.0957180  13.1456290  37.3185120
  54.0526810  12.7749200  38.1999580  54.2268190  14.0833860  37.4586940
  57.7963210  14.7015880  32.9194840  57.5554570  14.9690440  32.0325360
  58.7365850  14.8721610  32.9745700  53.9345210  16.0918540  34.4382900
  53.3405530  15.9603240  35.1772940  53.9269050  15.2556680  33.9725000
  66.7406820  17.3633680  30.9992220  66.2809790  18.1149490  30.6250240
  66.1119280  16.6440150  30.9407020  53.5657440  13.4576920  33.3890940
  52.8391500  12.8382210  33.3216890  53.6266590  13.8517530  32.5189020
  57.1702540  15.6721920  30.1740350  57.6867560  15.0609280  29.6488610
  57.8199920  16.1750700  30.6651360  59.9098040  16.5630410  31.0009330
  60.1975850  16.3084710  30.1242340  60.4221260  16.0107770  31.5914900
  51.8487440  16.7751310  26.5987700  51.6809480  16.1421990  27.2969590
  50.9821950  16.9810710  26.2481890  59.0129270   2.7207360  27.0921870
  58.2003780   2.3464250  26.7517750  59.5170910   1.9652440  27.3943060
  53.4550140  15.4684540  24.0437840  52.9297760  15.8492570  23.3399800
  53.3794720  16.0935310  24.7647550  59.9770400  17.4846510  38.3677530
  60.9037710  17.2490780  38.4113490  59.9620830  18.3118510  37.8863560
  68.2115460  17.0272080  25.3651780  68.3867650  16.3409820  24.7212700
  67.5137030  17.5519130  24.9728450  56.0543110  17.4166920  22.9187090
  56.7861930  17.1326200  22.3710980  56.3136780  17.1780200  23.8086470
  55.2157900  13.5331650  22.9233420  54.5866780  14.0016750  23.4719250
  55.3305730  12.6880870  23.3579610  66.5447960  16.7116370  38.1918570
  67.3373280  16.2165600  37.9844530  66.8381110  17.3906510  38.7994180
  62.6707620   7.5837310   9.0734620  62.5901670   6.6691920   8.8026330
  62.2572040   8.0804380   8.3674330  60.8025660   9.3616330  10.9543890
  60.0267760   8.8816770  11.2442460  61.4538590   8.6821980  10.7800050
  54.8191490   9.6736140  11.8319650  53.9876370   9.4184850  12.2316160
  55.4272470   9.7446910  12.5677570  64.8233090  13.7676520   9.7343020
  64.3614620  12.9963760  10.0630190  65.6358640  13.7942590  10.2395470
  54.7992750  13.7076230  12.0277670  55.1020790  12.8173970  11.8487890
  55.5436340  14.2646450  11.7999920  53.2283440   4.6338030   5.6162040
  52.3400140   4.9754000   5.5141920  53.5124630   4.4338350   4.7242870
  51.1916450   7.2343680  11.5001740  51.7632560   6.4665880  11.5005380
  51.1917990   7.5332440  10.5908350  61.0496400  16.0534530   9.3547010
  60.4307840  16.5092030   8.7841450  61.9048180  16.2085990   8.9536710
  60.2434650  12.0373520  10.9614050  60.1742930  11.0963460  10.8003180
  61.0054510  12.1274930  11.5336620  52.4341320   2.6428040  13.2870670
  52.2544160   1.7453790  13.5673430  52.0321400   3.1899910  13.9617620
  61.2739820   4.8443900  11.1882980  61.6504640   3.9715780  11.0756650
  61.1759330   5.1802600  10.2973420  55.4044830   3.2169530   6.6500420
  55.5111580   4.1173260   6.9569180  54.4937190   3.1687500   6.3595070
  65.0563940   2.3394340   8.1211320  65.8773560   1.8490910   8.1636800
  65.0898020   2.9292000   8.8743160  53.0527990   5.1388540  11.8953010
  53.7338100   5.4026910  12.5140410  52.7376040   4.2989410  12.2291020
  57.2452560   6.1855900  10.9825600  57.7530780   6.6836870  11.6230620
  57.7765800   5.4091100  10.8064960  69.3463490   4.3561090  14.6854950
  68.6415660   4.7442800  14.1670060  69.6121410   5.0511380  15.2875880
  61.9159750  10.9373770   6.7478920  61.2977020  11.4023220   6.1841640
  62.4283000  11.6301250   7.1648430  56.7791510  10.4649640  13.4262520
  56.4460890  11.0918560  14.0683590  56.9558190  10.9911520  12.6464190
  65.2925420   4.2794720  10.8938860  64.5880990   4.5679610  11.4741970
  65.6537580   5.0894830  10.5338420  55.2103990   2.5364420  13.2559470
  55.5520800   3.3806470  12.9613340  54.2719800   2.6848160  13.3724810
  55.9910610  12.4330440  15.2411700  56.6084610  13.1081520  14.9596150
  55.1303730  12.8418420  15.1499200  51.2842950  11.6230300   4.1218550
  50.9070930  12.1117400   3.3903450  51.5416020  12.2955580   4.7525080
  66.9088200  13.8969850  13.1566340  66.2251720  14.5668960  13.1483010
  67.4482490  14.0950500  12.3911200  68.3612340   3.7249510  11.2848070
  67.4137250   3.7588490  11.4163500  68.6862330   4.5388460  11.6697430
  64.4446940  15.7413980  11.8711520  64.4574100  15.3376270  11.0033780
  63.8922160  16.5161270  11.7672950  65.7392360  12.4630200   6.9601690
  65.6288690  11.5204530   7.0851110  65.7360610  12.8245840   7.8464450
  63.8432380  10.6443820  13.1994130  64.2601170  10.4303930  12.3647590
  64.5672200  10.9016610  13.7702750  61.2812640   8.0895520   6.3164180
  60.3541920   8.0232900   6.5452650  61.4337460   9.0275650   6.2019420
  61.2681720   4.3612520   3.3131340  60.3285390   4.5226480   3.3983800
  61.5864980   5.0798200   2.7667330  67.7894480   9.0431040  13.2910370
  66.9613110   9.1124130  12.8160500  68.3844960   9.6285350  12.8226200
  65.3109930   9.6515820   6.8199430  64.6922350   9.3135370   6.1725730
  65.2934380   9.0075580   7.5278620  64.7536490   5.8300360  14.2365240
  64.3407670   6.6554070  14.4905230  64.0212440   5.2445400  14.0441600
  56.8869280   8.6160260   9.0983910  56.4826280   7.9037510   8.6029810
  56.9732400   8.2713500   9.9871950  57.3550980  12.3027820  11.2623120
  57.0579270  11.6973290  10.5830900  58.3050800  12.3405130  11.1512480
  55.5997900   5.3903470  12.8782950  56.1512490   5.4998810  12.1036200
  56.1141410   5.7641070  13.5938180  65.4436590  15.8759690  14.9246220
  64.9667150  16.6831880  14.7318830  64.7598380  15.2238020  15.0772430
  56.4469410  12.0409510  17.9130920  55.5497940  12.2649480  18.1604320
  56.4722280  12.1644450  16.9642320  63.4874630   8.8902630   3.8272180
  63.9267910   8.0525060   3.6810000  64.2003050   9.5232030   3.9136320
  55.2740630   8.9122830  16.4888290  55.1348400   9.7845630  16.8575690
  54.3921990   8.5695640  16.3436230  61.5970010  13.8298700   7.7953420
  62.0365920  14.5723030   7.3808810  61.5356900  14.0725270   8.7192380
  57.0720980  14.8544530  18.6973440  57.0436410  15.2587480  17.8301870
  56.9085950  13.9254890  18.5345040  53.5873910   7.5105240   6.5990560
  53.4671510   8.2367330   5.9871830  53.2774800   6.7408150   6.1218470
  69.0235800  15.6371630  19.9937610  69.4995520  16.1154520  20.6726690
  69.6442960  15.5689120  19.2683110  51.2259280  10.6820380  12.4059200
  51.3039700  10.8169150  11.4614920  51.8400960   9.9736270  12.5987320
  52.4706910  12.3820570   8.8165380  52.0634990  12.5235160   7.9618980
  53.3619920  12.0980730   8.6136590  68.4269050  12.8284480  17.1537620
  68.5532110  12.5896360  16.2354800  68.4690430  11.9969020  17.6259700
  62.2885790  16.5312480  15.7232430  62.8030460  16.4420490  16.5254860
  61.4454870  16.8772180  16.0160340  64.2640190  16.8167820   5.1516430
  64.1041330  16.5270760   6.0498260  64.0986900  16.0407950   4.6161660
  56.7428570  16.5966350   6.9288050  56.5671050  15.6801890   6.7155850
  55.8884310  16.9553640   7.1685850  63.9666320  14.3255380   3.7114430
  63.2731480  14.3232670   3.0516710  64.7089180  13.9014700   3.2808600
  63.5316250  15.9518090   7.7862920  63.9873200  15.1707470   8.1001540
  63.8708770  16.6624910   8.3304100  68.2793060   4.8816940  18.1187360
  67.6637330   5.3896610  17.5902820  67.9589480   3.9815270  18.0613300
  51.2818800  11.7234550  14.9453660  51.4449840  11.2539910  14.1273030
  51.7471250  11.2158110  15.6102500  60.3407380   3.7208830  15.5849550
  59.8786750   3.9291850  16.3969490  59.9385490   2.9068180  15.2820220
  65.3411890   4.9417780  16.7146210  64.4905480   4.6423530  17.0355280
  65.1813680   5.1859790  15.8030030  62.4361600   6.4419530  18.8145000
  62.7615010   5.6083280  18.4747230  63.2241930   6.9648050  18.9623330
  55.8451790   5.9773880   7.7095480  55.6192710   5.7611050   8.6142100
  55.0644320   6.4102340   7.3641450  63.0749550   5.9837250   6.3086130
  62.4758440   6.7073050   6.1249750  63.6229160   5.9214030   5.5262580
  58.2851000   6.8759460  18.3755750  58.1894600   5.9354190  18.2256150
  59.1282980   7.0974530  17.9803820  61.6814420   4.6200790   8.3389410
  62.0743990   4.9372990   7.5258100  62.0431270   3.7412670   8.4533930
  53.4161540   3.2873130  16.5289530  53.0224930   4.1348340  16.7362310
  52.7279940   2.6499500  16.7198170  59.9906590   3.3708100  19.5986270
  59.3004910   3.1780300  20.2332360  60.7338890   3.6542740  20.1310570
  62.2669560   7.2106540  12.4340190  61.5350680   7.7193350  12.7830290
  61.8693900   6.3936520  12.1328970  58.7046950   3.8860740  10.8392680
  58.7083010   3.4450690   9.9897220  59.5998070   4.2078070  10.9464500
  54.5549330   3.7687230   9.7986890  54.2149380   4.2462460  10.5553940
  53.7926650   3.3152350   9.4387990  58.7667100   4.8872820   3.8299440
  58.8879920   4.8459300   4.7785260  58.3815610   5.7496970   3.6746170
  62.7295470   2.6640220  11.8463130  62.7468210   3.1148870  12.6904980
  62.4811050   1.7645860  12.0596570  57.7788600   7.1973960   3.2282740
  57.2105500   6.7492210   2.6018650  58.4877600   7.5566740   2.6947890
  52.8557780  11.0985980  17.1049470  52.4712570  10.4579650  17.7032430
  53.1669970  11.8022100  17.6744200  59.0054920   7.9462520  12.5858090
  59.3725050   7.4721090  13.3319430  58.8159980   8.8204090  12.9266430
  51.8695410   2.6906210   8.7151560  51.5842330   2.3261880   9.5530180
  51.8074270   1.9586670   8.1014700  56.7954290   6.9871160  14.9042300
  56.4911360   7.8663140  15.1292660  57.7500750   7.0470950  14.9399740
  55.3236080  11.1932150   5.5009150  54.5498340  10.6529770   5.3407870
  56.0530710  10.6738760   5.1626910  66.0824060  10.1897510  11.2935540
  66.8023180  10.6852800  10.9031650  65.8805880   9.5115400  10.6489410
  61.4642860  10.2606570  17.1804540  61.3980170   9.3402240  16.9262130
  60.8348000  10.3582010  17.8949180  64.2582390   5.9555120   3.7327090
  65.1462010   6.2672350   3.5578430  64.2287480   5.0827370   3.3407670
  55.3673480  10.8612530   9.1387960  55.8852150  10.0580790   9.0844850
  54.9157500  10.7991670   9.9804790  60.2542980  12.1278810   4.4115260
  60.5958680  12.8721040   3.9158580  59.4255690  12.4409930   4.7740090
  52.8518020   7.8273900  16.0513660  52.4932960   8.4927750  16.6387000
  52.5572580   6.9957450  16.4226280  56.0531140   8.2858140  18.9353210
  55.7531280   8.4315320  18.0381030  56.8242380   7.7263430  18.8426600
  61.3959590  13.0827140  16.9308340  61.4104130  12.1508100  16.7127250
  60.6884690  13.1686900  17.5698110  66.5296660   7.2666960   3.2006950
  66.4460380   7.6981180   2.3503390  67.2490850   7.7265310   3.6333770
  67.6070800   9.7234480  16.2776920  66.8818990  10.3163260  16.0806310
  68.1346260   9.7158020  15.4790290  67.5583910  14.1209220   5.9289080
  66.9160070  13.4664840   6.2032800  67.1714570  14.5264310   5.1529750
  63.1370390  11.4494650   9.7760770  63.4894210  10.8522780   9.1162140
  62.2532720  11.1238880   9.9469020  59.2233670  12.2092340   7.1831180
  59.9104800  12.7561550   7.5638770  58.4366090  12.7533070   7.2180790
  51.3626070   7.8265160   2.6748260  52.2320920   8.1089960   2.9584180
  50.8716390   8.6401030   2.5597070  58.5260880   9.2138370   6.7956540
  58.9823660  10.0243620   7.0216730  58.1749090   8.8961510   7.6275030
  60.8293490  14.7244710  14.0248840  61.4735710  14.9304090  14.7022260
  61.1922930  13.9633110  13.5719690  62.1025570  12.7277060  12.7426290
  62.7447800  12.0270220  12.8558460  62.6274920  13.5075500  12.5623180
  65.9481290  13.0125680   2.4665430  65.7218870  12.2956120   3.0590070
  65.5577490  12.7638120   1.6287180  63.8763190  13.5271960  15.9462350
  64.2119430  14.1138650  16.6240270  62.9563530  13.3964670  16.1760140
  51.7297320  17.0392540   3.2409890  52.0894960  17.6381880   2.5867160
  51.5889660  17.5852430   4.0144920  65.5297540  10.9297620   4.1279590
  65.2419240  11.3910310   4.9157470  66.3249710  10.4695390   4.3963810
  51.7139180  15.3047400  17.7152290  51.8230300  14.3642140  17.5747680
  51.0619740  15.5702150  17.0666020  59.7051770  13.5763290  19.1150410
  59.3848640  12.8572530  19.6596100  59.0310130  14.2518360  19.1886470
  57.7465940  14.4223740   4.0583560  57.7376040  15.1553430   3.4428070
  56.8264300  14.1755320   4.1510520  53.3472580   9.6438630   4.8030320
  52.7400530  10.3837530   4.8125620  53.8221930   9.7337990   3.9768520
  62.9205370   3.8089450  14.4787210  63.2886190   2.9884660  14.8066780
  62.0603570   3.8691340  14.8942860  66.2867400   2.7646390   5.2874770
  65.6580560   2.8692060   4.5733000  65.7919320   2.9843170   6.0768650
  60.7325540  14.4851980   2.7208750  60.8337520  14.2815970   1.7910730
  59.8327280  14.2310260   2.9256530  58.2551430   5.0432340   6.7032650
  57.5467580   5.5118680   7.1446260  58.5395910   4.3854350   7.3377840
  59.8807360   6.4629040  14.7025180  60.3792610   6.9374860  15.3677030
  60.0230310   5.5392560  14.9095210  62.2866860   1.7683000   8.1428440
  62.1634640   1.7869130   7.1937950  63.2351420   1.8161940   8.2626840
  59.3743650  17.0038300   7.4156420  59.6285150  16.9659690   6.4935790
  58.4256130  16.8771630   7.4084670  56.4586450   3.3517420   4.0783360
  57.3076980   3.7887570   4.0123550  56.0917720   3.6637680   4.9055420
  67.0874220   2.6797000  15.5453570  66.5847820   3.4202400  15.8847380
  67.9030880   3.0681000  15.2290360  65.3796230   7.9230180   8.9914930
  64.4386370   7.9380410   9.1662620  65.6940300   7.1366140   9.4375230
  55.3577870   9.6049780   2.5518890  56.1241140   9.4931140   3.1144320
  55.4352560   8.9087750   1.8995660  54.0524630   7.0374850   3.2351780
  54.1328220   6.0902360   3.3469180  54.9444380   7.3681730   3.3412440
  67.3821810  15.0939030  10.6669190  67.5069230  15.9170200  11.1393000
  68.2487370  14.8829760  10.3193340  54.8539340  17.1870240  10.3386320
  55.5901820  16.6385700  10.6094890  55.2380260  18.0526250  10.1992310
  51.7384820  13.2543810   6.2127830  50.8124600  13.4964950   6.2033240
  52.2041250  14.0818070   6.0912580  53.8597620  16.3716310  19.5271900
  54.6610350  16.6928360  19.9407300  53.3449440  16.0111890  20.2491810
  57.9641650  16.3600550   2.1611890  58.7570260  16.6489380   1.7093680
  57.4446000  15.9292720   1.4824370  62.6962250  12.4796180  19.4747310
  62.0900410  12.5027780  18.7343060  62.3916360  11.7479220  20.0114560
  64.1262620  16.2076470  18.0856720  65.0784370  16.1234490  18.0356960
  63.9790840  16.8718180  18.7590510  67.0171820  15.5870680   3.5848630
  66.7313330  15.1735820   2.7702810  66.8191370  16.5158390   3.4649150
  51.5795430   8.8589770  18.4707950  52.0834450   8.2797050  19.0424180
  50.8402850   9.1430000  19.0084320  58.6333370  10.2660760  18.0043470
  57.8679040  10.8345760  17.9198140  58.8149330   9.9736970  17.1111700
  61.7221780  10.6423990   2.6296230  61.1731880  11.0893290   3.2738970
  62.3441040  10.1373240   3.1533900  65.7756720  11.9966090  18.5618490
  66.5166190  12.3341850  18.0585950  65.0129400  12.1658150  18.0088260
  53.6118510   7.0019360  19.3658020  53.6523850   6.7033230  20.2743250
  54.4664010   7.4026970  19.2065540  57.3896900   9.6014910   4.5261530
  57.8113320   9.4354780   5.3692920  57.5147740   8.7915140   4.0316670
  55.5524320   5.5811460  17.3332510  55.0220780   5.0902410  16.7055850
  56.2212390   6.0095660  16.7990440  64.4502380  10.0480920  17.0973700
  64.8643400  10.2026000  17.9464120  63.5153380  10.1736140  17.2599480
  64.9224550   7.3877080  19.1012850  65.5045320   6.6329400  19.0133330
  65.0986320   7.9184520  18.3244330  56.0396620   2.5473830  17.4129800
  55.9453490   1.9294580  16.6880670  55.4594010   3.2740120  17.1859710
  59.2117610  10.0001400  15.0669630  59.6305720  10.8434130  14.8945870
  58.2926240  10.1373440  14.8376410  61.5481510   7.7317580  16.4507470
  61.6677720   7.1358720  17.1902310  62.4075510   7.7687270  16.0308770
  63.8869410   8.2854770  15.0269980  63.3604630   8.8097390  14.4235120
  64.2300750   8.9182160  15.6579710  57.0625030  16.3054410  16.1827360
  56.5246120  17.0300470  15.8636060  57.3158990  15.8284750  15.3924700
  58.3150280   4.2738930  17.7083290  58.9049970   3.9654780  18.3961110
  57.4970520   3.8018680  17.8643190  63.1343710   3.8904740  17.9416310
  62.4459230   3.2286280  17.8766300  63.8549730   3.4443010  18.3864770
  59.9187240  17.5405620  16.4414010  59.8445940  18.4440760  16.7486380
  59.0166080  17.2217520  16.4136080  60.4672570  16.7064130   4.0640370
  61.3623360  17.0449100   4.0859130  60.4990200  15.9843540   3.4364650
  54.1068730  12.0791180   2.2927370  54.5443600  12.6220850   2.9484950
  54.5916460  11.2538130   2.3023710  51.3214530  14.8680210   9.7447630
  51.6517540  14.0001270   9.5126270  51.7505530  15.0738730  10.5752590
  55.9176450  13.1989220   7.4049600  55.6171990  13.0754190   8.3053510
  55.8113940  12.3397810   6.9965330  51.8104740  15.7350800  12.4829260
  51.3735730  15.9151600  13.3153410  52.3782420  16.4925420  12.3410980
  67.4466920  15.2367800  16.7706570  66.8468910  15.2960360  16.0270490
  67.5760820  14.2972780  16.9003420  68.6868370  12.9785620   2.1076280
  67.8561330  13.0462270   2.5783510  68.8640200  13.8689740   1.8043140
  68.1424830   9.7233100   4.6110480  68.9043740  10.2929750   4.7170170
  68.1579200   9.1560300   5.3818790  51.6429170   8.2471030   8.8418140
  50.9878010   7.9782670   8.1977840  52.4807120   8.1375510   8.3920120
  69.1484800  10.5783200   9.4552410  69.5193630   9.7950520   9.0488380
  69.7886730  11.2672300   9.2769710  66.1318560  11.9619780  14.8682730
  65.3178400  12.3916940  15.1308520  66.5392760  12.5738190  14.2551780
  68.1944000  10.0167470   1.7683000  68.4692840  10.9246350   1.6402220
  68.0054740   9.9530000   2.7044990  64.5919610   3.0412320   3.0636630
  65.0104490   2.8543300   2.2233290  64.2855670   2.1891370   3.3739560
  68.0909340   7.9536460   6.7612430  67.7152940   7.1864390   6.3293720
  67.3612460   8.3359160   7.2487360  52.6805100   8.6323600  13.3821480
  53.0478140   8.5451000  14.2617500  52.1115920   7.8690150  13.2828340
  67.4808960   7.1007980  16.3951950  67.2495050   6.8720730  15.4949900
  67.7413510   8.0207530  16.3496840  52.2321100   5.5432690  17.2879900
  51.3377150   5.5099450  17.6273610  52.7718650   5.7419480  18.0531150
  65.9197030   2.3264410  19.1731650  66.7967210   2.3347810  19.5565650
  65.9317870   1.5895250  18.5624000  50.8567250   5.4569960   4.7843470
  49.9531330   5.7200160   4.6095130  51.3407870   5.7281130   4.0043430
  67.3660300   6.1793950  10.0619670  67.8897780   5.6856600   9.4309840
  67.9519720   6.3144310  10.8067240  67.5450020   6.2633820  13.5839220
  66.5952730   6.2297360  13.6984210  67.7263030   7.1733930  13.3488990
  53.3994460   4.5135500   2.6937850  54.1086160   4.0918720   2.2085130
  52.6834400   4.5810730   2.0621200  66.8560270   5.4367300   6.0012080
  67.3519390   5.2038170   6.7860960  66.6576340   4.5979140   5.5849720
  68.2847430   4.0728250   8.5349760  68.1746710   3.9184290   9.4732030
  69.0455020   3.5449190   8.2925170  69.1737700   1.9036170   1.7755900
  70.0987010   1.7717350   1.5674190  69.1513490   1.9828990   2.7292350
  69.2476190   2.6746830   4.4012610  68.4527690   2.6091950   4.9305520
  69.4519470   3.6097470   4.3897960  66.1894610  16.7138380   8.3951000
  66.7853680  16.3922950   7.7185420  66.4472760  16.2410200   9.1864270
  54.0957180  13.1456290  18.5441630  54.0526810  12.7749200  19.4256090
  54.2268190  14.0833860  18.6843450  57.7963210  14.7015880  14.1451350
  57.5554570  14.9690440  13.2581870  58.7365850  14.8721610  14.2002210
  69.0567370  16.7210260  14.9461990  68.5625650  17.1179130  14.2289120
  68.4480660  16.0959470  15.3399270  53.9345210  16.0918540  15.6639410
  53.3405530  15.9603240  16.4029450  53.9269050  15.2556680  15.1981510
  66.7406820  17.3633680  12.2248730  66.2809790  18.1149490  11.8506750
  66.1119280  16.6440150  12.1663530  53.5657440  13.4576920  14.6147450
  52.8391500  12.8382210  14.5473400  53.6266590  13.8517530  13.7445530
  57.1702540  15.6721920  11.3996860  57.6867560  15.0609280  10.8745120
  57.8199920  16.1750700  11.8907870  59.9098040  16.5630410  12.2265840
  60.1975850  16.3084710  11.3498850  60.4221260  16.0107770  12.8171410
  51.8487440  16.7751310   7.8244210  51.6809480  16.1421990   8.5226100
  50.9821950  16.9810710   7.4738400  59.0129270   2.7207360   8.3178380
  58.2003780   2.3464250   7.9774260  59.5170910   1.9652440   8.6199570
  53.4550140  15.4684540   5.2694350  52.9297760  15.8492570   4.5656310
  53.3794720  16.0935310   5.9904060  59.9770400  17.4846510  19.5934040
  60.9037710  17.2490780  19.6370000  59.9620830  18.3118510  19.1120070
  68.2115460  17.0272080   6.5908290  68.3867650  16.3409820   5.9469210
  67.5137030  17.5519130   6.1984960  56.0543110  17.4166920   4.1443600
  56.7861930  17.1326200   3.5967490  56.3136780  17.1780200   5.0342980
  55.2157900  13.5331650   4.1489930  54.5866780  14.0016750   4.6975760
  55.3305730  12.6880870   4.5836120  66.5447960  16.7116370  19.4175080
  67.3373280  16.2165600  19.2101040  66.8381110  17.3906510  20.0250690
  43.8964130  82.6811270  65.3965090  43.8158180  81.7665880  65.1256800
  43.4828550  83.1778340  64.6904800  42.0282170  84.4590290  67.2774360
  41.2524270  83.9790730  67.5672930  42.6795100  83.7795940  67.1030520
  36.0448000  84.7710100  68.1550120  35.2132880  84.5158810  68.5546630
  36.6528980  84.8420870  68.8908040  46.0489600  88.8650480  66.0573490
  45.5871130  88.0937720  66.3860660  46.8615150  88.8916550  66.5625940
  36.0249260  88.8050190  68.3508140  36.3277300  87.9147930  68.1718360
  36.7692850  89.3620410  68.1230390  34.4539950  79.7311990  61.9392510
  33.5656650  80.0727960  61.8372390  34.7381140  79.5312310  61.0473340
  32.4172960  82.3317640  67.8232210  32.9889070  81.5639840  67.8235850
  32.4174500  82.6306400  66.9138820  41.4691160  87.1347480  67.2844520
  41.3999440  86.1937420  67.1233650  42.2311020  87.2248890  67.8567090
  33.6597830  77.7402000  69.6101140  33.4800670  76.8427750  69.8903900
  33.2577910  78.2873870  70.2848090  42.4996330  79.9417860  67.5113450
  42.8761150  79.0689740  67.3987120  42.4015840  80.2776560  66.6203890
  36.6301340  78.3143490  62.9730890  36.7368090  79.2147220  63.2799650
  35.7193700  78.2661460  62.6825540  46.2820450  77.4368300  64.4441790
  47.1030070  76.9464870  64.4867270  46.3154530  78.0265960  65.1973630
  34.2784500  80.2362500  68.2183480  34.9594610  80.5000870  68.8370880
  33.9632550  79.3963370  68.5521490  38.4709070  81.2829860  67.3056070
  38.9787290  81.7810830  67.9461090  39.0022310  80.5065060  67.1295430
  50.5720000  79.4535050  71.0085420  49.8672170  79.8416760  70.4900530
  50.8377920  80.1485340  71.6106350  36.7545170  75.9228420  71.5719490
  36.7563610  76.4400810  70.7665390  35.9249480  75.4458600  71.5489420
  43.1416260  86.0347730  63.0709390  42.5233530  86.4997180  62.5072110
  43.6539510  86.7275210  63.4878900  38.0048020  85.5623600  69.7492990
  37.6717400  86.1892520  70.3914060  38.1814700  86.0885480  68.9694660
  46.5181930  79.3768680  67.2169330  45.8137500  79.6653570  67.7972440
  46.8794090  80.1868790  66.8568890  36.4360500  77.6338380  69.5789940
  36.7777310  78.4780430  69.2843810  35.4976310  77.7822120  69.6955280
  37.2167120  87.5304400  71.5642170  37.8341120  88.2055480  71.2826620
  36.3560240  87.9392380  71.4729670  32.5099460  86.7204260  60.4449020
  32.1327440  87.2091360  59.7133920  32.7672530  87.3929540  61.0755550
  48.1344710  88.9943810  69.4796810  47.4508230  89.6642920  69.4713480
  48.6739000  89.1924460  68.7141670  49.5868850  78.8223470  67.6078540
  48.6393760  78.8562450  67.7393970  49.9118840  79.6362420  67.9927900
  40.1188390  75.1220650  65.9034530  40.4263370  74.5667540  65.1870030
  39.1889090  75.2565110  65.7207520  46.9648870  87.5604160  63.2832160
  46.8545200  86.6178490  63.4081580  46.9617120  87.9219800  64.1694920
  45.0688890  85.7417780  69.5224600  45.4857680  85.5277890  68.6878060
  45.7928710  85.9990570  70.0933220  42.5069150  83.1869480  62.6394650
  41.5798430  83.1206860  62.8683120  42.6593970  84.1249610  62.5249890
  42.4938230  79.4586480  59.6361810  41.5541900  79.6200440  59.7214270
  42.8121490  80.1772160  59.0897800  49.0150990  84.1405000  69.6140840
  48.1869620  84.2098090  69.1390970  49.6101470  84.7259310  69.1456670
  46.5366440  84.7489780  63.1429900  45.9178860  84.4109330  62.4956200
  46.5190890  84.1049540  63.8509090  45.9793000  80.9274320  70.5595710
  45.5664180  81.7528030  70.8135700  45.2468950  80.3419360  70.3672070
  38.1125790  83.7134220  65.4214380  37.7082790  83.0011470  64.9260280
  38.1988910  83.3687460  66.3102420  38.5807490  87.4001780  67.5853590
  38.2835780  86.7947250  66.9061370  39.5307310  87.4379090  67.4742950
  36.8254410  80.4877430  69.2013420  37.3769000  80.5972770  68.4266670
  37.3397920  80.8615030  69.9168650  37.6725920  87.1383470  74.2361390
  36.7754450  87.3623440  74.4834790  37.6978790  87.2618410  73.2872790
  44.7131140  83.9876590  60.1502650  45.1524420  83.1499020  60.0040470
  45.4259560  84.6205990  60.2366790  36.4997140  84.0096790  72.8118760
  36.3604910  84.8819590  73.1806160  35.6178500  83.6669600  72.6666700
  42.8226520  88.9272660  64.1183890  43.2622430  89.6696990  63.7039280
  42.7613410  89.1699230  65.0422850  38.2977490  89.9518490  75.0203910
  38.2692920  90.3561440  74.1532340  38.1342460  89.0228850  74.8575510
  48.2948280  75.2419400  58.4643690  47.9820940  75.3346230  59.3642760
  49.0560750  75.8200430  58.4141120  34.8130420  82.6079200  62.9221030
  34.6928020  83.3341290  62.3102300  34.5031310  81.8382110  62.4448940
  32.4515790  85.7794340  68.7289670  32.5296210  85.9143110  67.7845390
  33.0657470  85.0710230  68.9217790  33.6963420  87.4794530  65.1395850
  33.2891500  87.6209120  64.2849450  34.5876430  87.1954690  64.9367060
  49.6525560  87.9258440  73.4768090  49.7788620  87.6870320  72.5585270
  49.6946940  87.0942980  73.9490170  45.1922830  89.4229340  60.0344900
  44.4987990  89.4206630  59.3747180  45.9345690  88.9988660  59.6039070
  49.5049570  79.9790900  74.4417830  48.8893840  80.4870570  73.9133290
  49.1845990  79.0789230  74.3843770  32.5075310  86.8208510  71.2684130
  32.6706350  86.3513870  70.4503500  32.9727760  86.3132070  71.9332970
  37.2794080  75.9514270  66.3044700  36.8362230  76.7323810  65.9729220
  37.8379070  76.2744160  67.0115640  41.5663890  78.8182790  71.9080020
  41.1043260  79.0265810  72.7199960  41.1642000  78.0042140  71.6050690
  46.5668400  80.0391740  73.0376680  45.7161990  79.7397490  73.3585750
  46.4070190  80.2833750  72.1260500  43.6618110  81.5393490  75.1375470
  43.9871520  80.7057240  74.7977700  44.4498440  82.0622010  75.2853800
  40.3952900  75.5724970  61.1850530  39.7707080  75.5684840  61.9103840
  40.3083020  74.7055930  60.7886500  39.3169980  76.4961600  68.1634300
  39.6142310  77.4024430  68.0826320  39.8655540  76.0080380  67.5493870
  37.0708300  81.0747840  64.0325950  36.8449220  80.8585010  64.9372570
  36.2900830  81.5076300  63.6871920  44.3006060  81.0811210  62.6316600
  43.7014950  81.8047010  62.4480220  44.8485670  81.0187990  61.8493050
  39.5107510  81.9733420  74.6986220  39.4151110  81.0328150  74.5486620
  40.3539490  82.1948490  74.3034290  42.9070930  79.7174750  64.6619880
  43.3000500  80.0346950  63.8488570  43.2687780  78.8386630  64.7764400
  34.6418050  78.3847090  72.8520000  34.2481440  79.2322300  73.0592780
  33.9536450  77.7473460  73.0428640  31.9435100  76.3075550  66.8850080
  31.6548150  76.8778410  67.5975060  32.6880860  75.8280000  67.2481310
  32.1305330  80.2495670  58.0952800  32.0480000  81.1926430  58.2367790
  31.7788390  80.1070580  57.2165150  43.4926070  82.3080500  68.7570660
  42.7607190  82.8167310  69.1060760  43.0950410  81.4910480  68.4559440
  39.9303460  78.9834700  67.1623150  39.9339520  78.5424650  66.3127690
  40.8254580  79.3052030  67.2694970  35.7805840  78.8661190  66.1217360
  35.4405890  79.3436420  66.8784410  35.0183160  78.4126310  65.7618460
  39.9923610  79.9846780  60.1529910  40.1136430  79.9433260  61.1015730
  39.6072120  80.8470930  59.9976640  43.9551980  77.7614180  68.1693600
  43.9724720  78.2122830  69.0135450  43.7067560  76.8619820  68.3827040
  39.0045110  82.2947920  59.5513210  38.4362010  81.8466170  58.9249120
  39.7134110  82.6540700  59.0178360  47.3822730  75.1746360  74.0079980
  47.7068500  74.4436020  74.5337960  47.4179240  74.8560000  73.1060970
  34.0814290  86.1959940  73.4279940  33.6969080  85.5553610  74.0262900
  34.3926480  86.8996060  73.9974670  40.2311430  83.0436480  68.9088560
  40.5981560  82.5695050  69.6549900  40.0416490  83.9178050  69.2496900
  33.0951920  77.7880170  65.0382030  32.8098840  77.4235840  65.8760650
  33.0330780  77.0560630  64.4245170  38.0210800  82.0845120  71.2272770
  37.7167870  82.9637100  71.4523130  38.9757260  82.1444910  71.2630210
  36.5492590  86.2906110  61.8239620  35.7754850  85.7503730  61.6638340
  37.2787220  85.7712720  61.4857380  47.3080570  85.2871470  67.6166010
  48.0279690  85.7826760  67.2262120  47.1062390  84.6089360  66.9719880
  42.7690510  76.6809430  61.7595400  41.9555120  76.1822600  61.6840710
  42.5752460  77.5207680  61.3431750  42.6899370  85.3580530  73.5035010
  42.6236680  84.4376200  73.2492600  42.0604510  85.4555970  74.2179650
  45.4838900  81.0529080  60.0557560  46.3718520  81.3646310  59.8808900
  45.4543990  80.1801330  59.6638140  36.5929990  85.9586490  65.4618430
  37.1108660  85.1554750  65.4075320  36.1414010  85.8965630  66.3035260
  41.4799490  87.2252770  60.7345730  41.8215190  87.9695000  60.2389050
  40.6512200  87.5383890  61.0970560  34.0774530  82.9247860  72.3744130
  33.7189470  83.5901710  72.9617470  33.7829090  82.0931410  72.7456750
  37.2787650  83.3832100  75.2583680  36.9787790  83.5289280  74.3611500
  38.0498890  82.8237390  75.1657070  42.6216100  88.1801100  73.2538810
  42.6360640  87.2482060  73.0357720  41.9141200  88.2660860  73.8928580
  47.7553170  82.3640920  59.5237420  47.6716890  82.7955140  58.6733860
  48.4747360  82.8239270  59.9564240  48.8327310  84.8208440  72.6007390
  48.1075500  85.4137220  72.4036780  49.3602770  84.8131980  71.8020760
  48.7840420  89.2183180  62.2519550  48.1416580  88.5638800  62.5263270
  48.3971080  89.6238270  61.4760220  44.3626900  86.5468610  66.0991240
  44.7150720  85.9496740  65.4392610  43.4789230  86.2212840  66.2699490
  40.4490180  87.3066300  63.5061650  41.1361310  87.8535510  63.8869240
  39.6622600  87.8507030  63.5411260  32.5882580  82.9239120  58.9978730
  33.4577430  83.2063920  59.2814650  32.0972900  83.7374990  58.8827540
  39.7517390  84.3112330  63.1187010  40.2080170  85.1217580  63.3447200
  39.4005600  83.9935470  63.9505500  42.0550000  89.8218670  70.3479310
  42.6992220  90.0278050  71.0252730  42.4179440  89.0607070  69.8950160
  35.6529170  74.6549980  63.5909530  35.5243800  74.6467880  64.5394450
  34.8291190  74.9933070  63.2400540  43.3282080  87.8251020  69.0656760
  43.9704310  87.1244180  69.1788930  43.8531430  88.6049460  68.8853650
  47.1737800  88.1099640  58.7895900  46.9475380  87.3930080  59.3820540
  46.7834000  87.8612080  57.9517650  45.1019700  88.6245920  72.2692820
  45.4375940  89.2112610  72.9470740  44.1820040  88.4938630  72.4990610
  32.6523100  76.4141100  73.0516230  31.9381620  76.6138020  73.6568840
  33.0718140  75.6380670  73.4231030  46.7554050  86.0271580  60.4510060
  46.4675750  86.4884270  61.2387940  47.5506220  85.5669350  60.7194280
  40.9308280  88.6737250  75.4380880  40.6105150  87.9546490  75.9826570
  40.2566640  89.3492320  75.5116940  38.9722450  89.5197700  60.3814030
  38.9632550  90.2527390  59.7658540  38.0520810  89.2729280  60.4740990
  34.5729090  84.7412590  61.1260790  33.9657040  85.4811490  61.1356090
  35.0478440  84.8311950  60.2998990  44.1461880  78.9063410  70.8017680
  44.5142700  78.0858620  71.1297250  43.2860080  78.9665300  71.2173330
  47.5123910  77.8620350  61.6105240  46.8837070  77.9666020  60.8963470
  47.0175830  78.0817130  62.3999120  41.9582050  89.5825940  59.0439220
  42.0594030  89.3789930  58.1141200  41.0583790  89.3284220  59.2487000
  39.4807940  80.1406300  63.0263120  38.7724090  80.6092640  63.4676730
  39.7652420  79.4828310  63.6608310  41.1063870  81.5603000  71.0255650
  41.6049120  82.0348820  71.6907500  41.2486820  80.6366520  71.2325680
  43.5123370  76.8656960  64.4658910  43.3891150  76.8843090  63.5168420
  44.4607930  76.9135900  64.5857310  37.6842960  78.4491380  60.4013830
  38.5333490  78.8861530  60.3354020  37.3174230  78.7611640  61.2285890
  48.3130730  77.7770960  71.8684040  47.8104330  78.5176360  72.2077850
  49.1287390  78.1654960  71.5520830  46.6052740  83.0204140  65.3145400
  45.6642880  83.0354370  65.4893090  46.9196810  82.2340100  65.7605700
  36.5834380  84.7023740  58.8749360  37.3497650  84.5905100  59.4374790
  36.6609070  84.0061710  58.2226130  35.2781140  82.1348810  59.5582250
  35.3584730  81.1876320  59.6699650  36.1700890  82.4655690  59.6642910
  32.9641330  88.3517770  62.5358300  32.0381110  88.5938910  62.5263710
  33.4297760  89.1792030  62.4143050  32.8051940  83.9563730  74.7938420
  33.3090960  83.3771010  75.3654650  32.0659360  84.2403960  75.3314790
  39.7075560  86.6777920  58.3484710  39.6026200  86.0630270  59.0746090
  39.5399780  86.1543810  57.5647720  39.8589880  85.3634720  74.3273940
  39.0935550  85.9319720  74.2428610  40.0405840  85.0710930  73.4342170
  42.9478290  85.7397950  58.9526700  42.3988390  86.1867250  59.5969440
  43.5697550  85.2347200  59.4764370  47.0013230  87.0940050  74.8848960
  47.7422700  87.4315810  74.3816420  46.2385910  87.2632110  74.3318730
  38.6153410  84.6988870  60.8492000  39.0369830  84.5328740  61.6923390
  38.7404250  83.8889100  60.3547140  36.7780830  80.6785420  73.6562980
  36.2477290  80.1876370  73.0286320  37.4468900  81.1069620  73.1220910
  41.1281050  83.7226480  58.0969100  41.6486710  83.0075500  57.7310250
  41.7749450  84.3612350  58.3969610  45.6758890  85.1454880  73.4204170
  46.0899910  85.2999960  74.2694590  44.7409890  85.2710100  73.5829950
  46.1481060  82.4851040  75.4243320  46.7301830  81.7303360  75.3363800
  46.3242830  83.0158480  74.6474800  37.2653130  77.6447790  73.7360270
  37.1710000  77.0268540  73.0111140  36.6850520  78.3714080  73.5090180
  40.0314570  76.2021030  70.7687660  39.5831870  76.2245290  69.9233210
  39.3979770  75.8040050  71.3657960  40.4374120  85.0975360  71.3900100
  40.8562230  85.9408090  71.2176340  39.5182750  85.2347400  71.1606880
  42.7738020  82.8291540  72.7737940  42.8934230  82.2332680  73.5132780
  43.6332020  82.8661230  72.3539240  45.1125920  83.3828730  71.3500450
  44.5861140  83.9071350  70.7465590  45.4557260  84.0156120  71.9810180
  37.5112310  80.7722100  57.7950160  37.3101370  79.9089460  58.1563500
  37.3404360  80.6855460  56.8571760  39.5406790  79.3712890  74.0313760
  40.1306480  79.0628740  74.7191580  38.7227030  78.8992640  74.1873660
  44.3600220  78.9878700  74.2646780  43.6715740  78.3260240  74.1996770
  45.0806240  78.5416970  74.7095240  44.9900620  75.5830330  60.3237040
  45.2702910  74.7398230  60.6796460  44.2166350  75.8153440  60.8375790
  36.3095110  77.8722720  57.7828040  36.6121010  77.8790150  56.8747190
  37.0489700  77.5220580  58.2795700  39.5280040  76.8157340  58.7684240
  39.1802040  76.1381330  58.1886690  39.7292810  76.3546850  59.5827630
  35.3325240  87.1765140  58.6157840  35.7700110  87.7194810  59.2715420
  35.8172970  86.3512090  58.6254180  32.5471040  89.9654170  66.0678100
  32.8774050  89.0975230  65.8356740  32.9762040  90.1712690  66.8983060
  37.1432960  88.2963180  63.7280070  36.8428500  88.1728150  64.6283980
  37.0370450  87.4371770  63.3195800  48.6723430  90.3341760  73.0937040
  48.0725420  90.3934320  72.3500960  48.8017330  89.3946740  73.2233890
  49.9124880  88.0759580  58.4306750  49.0817840  88.1436230  58.9013980
  50.0896710  88.9663700  58.1273610  49.3681340  84.8207060  60.9340950
  50.1300250  85.3903710  61.0400640  49.3835710  84.2534260  61.7049260
  32.8685680  83.3444990  65.1648610  32.2134520  83.0756630  64.5208310
  33.7063630  83.2349470  64.7150590  50.3741310  85.6757160  65.7782880
  50.7450140  84.8924480  65.3718850  51.0143240  86.3646260  65.6000180
  47.3575070  87.0593740  71.1913200  46.5434910  87.4890900  71.4538990
  47.7649270  87.6712150  70.5782250  49.4200510  85.1141430  58.0913470
  49.6949350  86.0220310  57.9632690  49.2311250  85.0503960  59.0275460
  45.8176120  78.1386280  59.3867100  46.2361000  77.9517260  58.5463760
  45.5112180  77.2865330  59.6970030  49.3165850  83.0510420  63.0842900
  48.9409450  82.2838350  62.6524190  48.5868970  83.4333120  63.5717830
  33.9061610  83.7297560  69.7051950  34.2734650  83.6424960  70.5847970
  33.3372430  82.9664110  69.6058810  48.7065470  82.1981940  72.7182420
  48.4751560  81.9694690  71.8180370  48.9670020  83.1181490  72.6727310
  33.4577610  80.6406650  73.6110370  32.5633660  80.6073410  73.9504080
  33.9975160  80.8393440  74.3761620  47.1453540  77.4238370  75.4962120
  48.0223720  77.4321770  75.8796120  47.1574380  76.6869210  74.8854470
  32.0823760  80.5543920  61.1073940  31.1787840  80.8174120  60.9325600
  32.5664380  80.8255090  60.3273900  48.5916810  81.2767910  66.3850140
  49.1154290  80.7830560  65.7540310  49.1776230  81.4118270  67.1297710
  48.7706530  81.3607780  69.9069690  47.8209240  81.3271320  70.0214680
  48.9519540  82.2707890  69.6719460  34.6250970  79.6109460  59.0168320
  35.3342670  79.1892680  58.5315600  33.9090910  79.6784690  58.3851670
  34.2725130  75.6648790  58.0570970  34.9953260  76.2057730  58.3752190
  34.5449650  75.3912210  57.1812510  48.0816780  80.5341260  62.3242550
  48.5775900  80.3012130  63.1091430  47.8832850  79.6953100  61.9080190
  33.9617320  74.9154980  67.9593590  34.6093510  74.3652360  67.5188750
  34.3819160  75.1698130  68.7809400  49.5103940  79.1702210  64.8580230
  49.4003220  79.0158250  65.7962500  50.2711530  78.6423150  64.6155640
  47.8569660  75.1096340  71.3163230  48.4941880  75.7230480  71.6822420
  48.0044550  75.1457000  70.3712460  50.3994210  77.0010130  58.0986370
  51.3243520  76.8691310  57.8904660  50.3770000  77.0802950  59.0522820
  50.4732700  77.7720790  60.7243080  49.6784200  77.7065910  61.2535990
  50.6775980  78.7071430  60.7128430  33.7149320  75.0710650  70.7018910
  33.3664140  75.5274470  71.4677090  33.3837020  74.1767780  70.7841340
  35.3213690  88.2430250  74.8672100  35.2783320  87.8723160  75.7486560
  35.4524700  89.1807820  75.0073920  39.0219720  89.7989840  70.4681820
  38.7811080  90.0664400  69.5812340  39.9622360  89.9695570  70.5232680
  41.2274140  76.2622530  74.2238330  41.1663030  76.8544360  74.9733740
  42.1674520  76.1548490  74.0788590  43.8648700  75.9192590  73.8630620
  44.4789110  76.2371880  73.2011700  44.4098260  75.4341180  74.4826480
  34.3869960  74.5986850  73.9769680  34.9352950  74.4174900  73.2135790
  34.4525270  73.8080960  74.5125990  44.6056740  74.4824730  70.1899910
  43.7316580  74.8159840  69.9872840  44.4967490  74.0097910  71.0151780
  45.5128720  76.6895600  71.5741630  45.1842080  75.8747360  71.1943360
  46.4611020  76.6465410  71.4507320  34.7913950  88.5550880  70.9377920
  34.0648010  87.9356170  70.8703870  34.8523100  88.9491490  70.0676000
  42.3531560  75.3994570  69.1292820  41.5703350  75.8740070  69.4089580
  42.0594490  74.4949400  69.0206000  46.9052630  76.1017670  67.1741910
  47.3460720  76.0462770  66.3263510  46.6360220  77.0175680  67.2452090
  48.7691200  75.7332910  65.1850730  48.7079600  74.7894130  65.0381750
  49.5483230  75.8413000  65.7304190  33.6971970  75.7042050  61.6506540
  34.4551330  75.8170930  61.0770570  33.2349140  76.5411250  61.6049970
  40.2385780  77.8181320  64.6408850  39.4260290  77.4438210  64.3004730
  40.7427420  77.0626400  64.9430040  44.7410760  74.4823770  65.8791920
  45.3440130  75.0543980  66.3540440  44.0003750  75.0463210  65.6565820
  47.8845360  74.8845330  61.1532200  48.0795990  75.7828780  61.4199630
  47.0975230  74.6532410  61.6465150  36.0697120  76.2306100  60.1908510
  36.5989880  75.4435900  60.0616460  36.7025440  76.9097290  60.4244040
  38.2634960  75.9681240  63.2453900  37.6337700  75.2668550  63.4124030
  37.7240100  76.7285370  63.0287060  38.3890520  75.2465220  75.6806390
  38.1074790  75.7498820  74.9167210  38.7710220  74.4486970  75.3148520
  36.4414410  88.6305610  60.4720400  35.8123290  89.0990710  61.0206230
  36.5562240  87.7854830  60.9066590  43.8964130  82.6811270  46.6221600
  43.8158180  81.7665880  46.3513310  43.4828550  83.1778340  45.9161310
  42.0282170  84.4590290  48.5030870  41.2524270  83.9790730  48.7929440
  42.6795100  83.7795940  48.3287030  36.0448000  84.7710100  49.3806630
  35.2132880  84.5158810  49.7803140  36.6528980  84.8420870  50.1164550
  46.0489600  88.8650480  47.2830000  45.5871130  88.0937720  47.6117170
  46.8615150  88.8916550  47.7882450  36.0249260  88.8050190  49.5764650
  36.3277300  87.9147930  49.3974870  36.7692850  89.3620410  49.3486900
  34.4539950  79.7311990  43.1649020  33.5656650  80.0727960  43.0628900
  34.7381140  79.5312310  42.2729850  32.4172960  82.3317640  49.0488720
  32.9889070  81.5639840  49.0492360  32.4174500  82.6306400  48.1395330
  41.4691160  87.1347480  48.5101030  41.3999440  86.1937420  48.3490160
  42.2311020  87.2248890  49.0823600  33.6597830  77.7402000  50.8357650
  33.4800670  76.8427750  51.1160410  33.2577910  78.2873870  51.5104600
  42.4996330  79.9417860  48.7369960  42.8761150  79.0689740  48.6243630
  42.4015840  80.2776560  47.8460400  36.6301340  78.3143490  44.1987400
  36.7368090  79.2147220  44.5056160  35.7193700  78.2661460  43.9082050
  46.2820450  77.4368300  45.6698300  47.1030070  76.9464870  45.7123780
  46.3154530  78.0265960  46.4230140  34.2784500  80.2362500  49.4439990
  34.9594610  80.5000870  50.0627390  33.9632550  79.3963370  49.7778000
  38.4709070  81.2829860  48.5312580  38.9787290  81.7810830  49.1717600
  39.0022310  80.5065060  48.3551940  50.5720000  79.4535050  52.2341930
  49.8672170  79.8416760  51.7157040  50.8377920  80.1485340  52.8362860
  36.7545170  75.9228420  52.7976000  36.7563610  76.4400810  51.9921900
  35.9249480  75.4458600  52.7745930  43.1416260  86.0347730  44.2965900
  42.5233530  86.4997180  43.7328620  43.6539510  86.7275210  44.7135410
  38.0048020  85.5623600  50.9749500  37.6717400  86.1892520  51.6170570
  38.1814700  86.0885480  50.1951170  46.5181930  79.3768680  48.4425840
  45.8137500  79.6653570  49.0228950  46.8794090  80.1868790  48.0825400
  36.4360500  77.6338380  50.8046450  36.7777310  78.4780430  50.5100320
  35.4976310  77.7822120  50.9211790  37.2167120  87.5304400  52.7898680
  37.8341120  88.2055480  52.5083130  36.3560240  87.9392380  52.6986180
  32.5099460  86.7204260  41.6705530  32.1327440  87.2091360  40.9390430
  32.7672530  87.3929540  42.3012060  48.1344710  88.9943810  50.7053320
  47.4508230  89.6642920  50.6969990  48.6739000  89.1924460  49.9398180
  49.5868850  78.8223470  48.8335050  48.6393760  78.8562450  48.9650480
  49.9118840  79.6362420  49.2184410  40.1188390  75.1220650  47.1291040
  40.4263370  74.5667540  46.4126540  39.1889090  75.2565110  46.9464030
  46.9648870  87.5604160  44.5088670  46.8545200  86.6178490  44.6338090
  46.9617120  87.9219800  45.3951430  45.0688890  85.7417780  50.7481110
  45.4857680  85.5277890  49.9134570  45.7928710  85.9990570  51.3189730
  42.5069150  83.1869480  43.8651160  41.5798430  83.1206860  44.0939630
  42.6593970  84.1249610  43.7506400  42.4938230  79.4586480  40.8618320
  41.5541900  79.6200440  40.9470780  42.8121490  80.1772160  40.3154310
  49.0150990  84.1405000  50.8397350  48.1869620  84.2098090  50.3647480
  49.6101470  84.7259310  50.3713180  46.5366440  84.7489780  44.3686410
  45.9178860  84.4109330  43.7212710  46.5190890  84.1049540  45.0765600
  45.9793000  80.9274320  51.7852220  45.5664180  81.7528030  52.0392210
  45.2468950  80.3419360  51.5928580  38.1125790  83.7134220  46.6470890
  37.7082790  83.0011470  46.1516790  38.1988910  83.3687460  47.5358930
  38.5807490  87.4001780  48.8110100  38.2835780  86.7947250  48.1317880
  39.5307310  87.4379090  48.6999460  36.8254410  80.4877430  50.4269930
  37.3769000  80.5972770  49.6523180  37.3397920  80.8615030  51.1425160
  37.6725920  87.1383470  55.4617900  36.7754450  87.3623440  55.7091300
  37.6978790  87.2618410  54.5129300  44.7131140  83.9876590  41.3759160
  45.1524420  83.1499020  41.2296980  45.4259560  84.6205990  41.4623300
  36.4997140  84.0096790  54.0375270  36.3604910  84.8819590  54.4062670
  35.6178500  83.6669600  53.8923210  42.8226520  88.9272660  45.3440400
  43.2622430  89.6696990  44.9295790  42.7613410  89.1699230  46.2679360
  38.2977490  89.9518490  56.2460420  38.2692920  90.3561440  55.3788850
  38.1342460  89.0228850  56.0832020  48.2948280  75.2419400  39.6900200
  47.9820940  75.3346230  40.5899270  49.0560750  75.8200430  39.6397630
  34.8130420  82.6079200  44.1477540  34.6928020  83.3341290  43.5358810
  34.5031310  81.8382110  43.6705450  32.4515790  85.7794340  49.9546180
  32.5296210  85.9143110  49.0101900  33.0657470  85.0710230  50.1474300
  33.6963420  87.4794530  46.3652360  33.2891500  87.6209120  45.5105960
  34.5876430  87.1954690  46.1623570  49.6525560  87.9258440  54.7024600
  49.7788620  87.6870320  53.7841780  49.6946940  87.0942980  55.1746680
  45.1922830  89.4229340  41.2601410  44.4987990  89.4206630  40.6003690
  45.9345690  88.9988660  40.8295580  49.5049570  79.9790900  55.6674340
  48.8893840  80.4870570  55.1389800  49.1845990  79.0789230  55.6100280
  32.5075310  86.8208510  52.4940640  32.6706350  86.3513870  51.6760010
  32.9727760  86.3132070  53.1589480  37.2794080  75.9514270  47.5301210
  36.8362230  76.7323810  47.1985730  37.8379070  76.2744160  48.2372150
  41.5663890  78.8182790  53.1336530  41.1043260  79.0265810  53.9456470
  41.1642000  78.0042140  52.8307200  46.5668400  80.0391740  54.2633190
  45.7161990  79.7397490  54.5842260  46.4070190  80.2833750  53.3517010
  43.6618110  81.5393490  56.3631980  43.9871520  80.7057240  56.0234210
  44.4498440  82.0622010  56.5110310  40.3952900  75.5724970  42.4107040
  39.7707080  75.5684840  43.1360350  40.3083020  74.7055930  42.0143010
  39.3169980  76.4961600  49.3890810  39.6142310  77.4024430  49.3082830
  39.8655540  76.0080380  48.7750380  37.0708300  81.0747840  45.2582460
  36.8449220  80.8585010  46.1629080  36.2900830  81.5076300  44.9128430
  44.3006060  81.0811210  43.8573110  43.7014950  81.8047010  43.6736730
  44.8485670  81.0187990  43.0749560  39.5107510  81.9733420  55.9242730
  39.4151110  81.0328150  55.7743130  40.3539490  82.1948490  55.5290800
  42.9070930  79.7174750  45.8876390  43.3000500  80.0346950  45.0745080
  43.2687780  78.8386630  46.0020910  34.6418050  78.3847090  54.0776510
  34.2481440  79.2322300  54.2849290  33.9536450  77.7473460  54.2685150
  41.2163100  78.4682060  57.1473250  40.5261420  78.2754260  57.7819340
  41.9595400  78.7516700  57.6797550  31.9435100  76.3075550  48.1106590
  31.6548150  76.8778410  48.8231570  32.6880860  75.8280000  48.4737820
  32.1305330  80.2495670  39.3209310  32.0480000  81.1926430  39.4624300
  31.7788390  80.1070580  38.4421660  43.4926070  82.3080500  49.9827170
  42.7607190  82.8167310  50.3317270  43.0950410  81.4910480  49.6815950
  39.9303460  78.9834700  48.3879660  39.9339520  78.5424650  47.5384200
  40.8254580  79.3052030  48.4951480  35.7805840  78.8661190  47.3473870
  35.4405890  79.3436420  48.1040920  35.0183160  78.4126310  46.9874970
  39.9923610  79.9846780  41.3786420  40.1136430  79.9433260  42.3272240
  39.6072120  80.8470930  41.2233150  43.9551980  77.7614180  49.3950110
  43.9724720  78.2122830  50.2391960  43.7067560  76.8619820  49.6083550
  39.0045110  82.2947920  40.7769720  38.4362010  81.8466170  40.1505630
  39.7134110  82.6540700  40.2434870  47.3822730  75.1746360  55.2336490
  47.7068500  74.4436020  55.7594470  47.4179240  74.8560000  54.3317480
  34.0814290  86.1959940  54.6536450  33.6969080  85.5553610  55.2519410
  34.3926480  86.8996060  55.2231180  40.2311430  83.0436480  50.1345070
  40.5981560  82.5695050  50.8806410  40.0416490  83.9178050  50.4753410
  33.0951920  77.7880170  46.2638540  32.8098840  77.4235840  47.1017160
  33.0330780  77.0560630  45.6501680  38.0210800  82.0845120  52.4529280
  37.7167870  82.9637100  52.6779640  38.9757260  82.1444910  52.4886720
  36.5492590  86.2906110  43.0496130  35.7754850  85.7503730  42.8894850
  37.2787220  85.7712720  42.7113890  47.3080570  85.2871470  48.8422520
  48.0279690  85.7826760  48.4518630  47.1062390  84.6089360  48.1976390
  42.7690510  76.6809430  42.9851910  41.9555120  76.1822600  42.9097220
  42.5752460  77.5207680  42.5688260  42.6899370  85.3580530  54.7291520
  42.6236680  84.4376200  54.4749110  42.0604510  85.4555970  55.4436160
  45.4838900  81.0529080  41.2814070  46.3718520  81.3646310  41.1065410
  45.4543990  80.1801330  40.8894650  36.5929990  85.9586490  46.6874940
  37.1108660  85.1554750  46.6331830  36.1414010  85.8965630  47.5291770
  41.4799490  87.2252770  41.9602240  41.8215190  87.9695000  41.4645560
  40.6512200  87.5383890  42.3227070  34.0774530  82.9247860  53.6000640
  33.7189470  83.5901710  54.1873980  33.7829090  82.0931410  53.9713260
  37.2787650  83.3832100  56.4840190  36.9787790  83.5289280  55.5868010
  38.0498890  82.8237390  56.3913580  42.6216100  88.1801100  54.4795320
  42.6360640  87.2482060  54.2614230  41.9141200  88.2660860  55.1185090
  47.7553170  82.3640920  40.7493930  47.6716890  82.7955140  39.8990370
  48.4747360  82.8239270  41.1820750  48.8327310  84.8208440  53.8263900
  48.1075500  85.4137220  53.6293290  49.3602770  84.8131980  53.0277270
  48.7840420  89.2183180  43.4776060  48.1416580  88.5638800  43.7519780
  48.3971080  89.6238270  42.7016730  44.3626900  86.5468610  47.3247750
  44.7150720  85.9496740  46.6649120  43.4789230  86.2212840  47.4956000
  40.4490180  87.3066300  44.7318160  41.1361310  87.8535510  45.1125750
  39.6622600  87.8507030  44.7667770  32.5882580  82.9239120  40.2235240
  33.4577430  83.2063920  40.5071160  32.0972900  83.7374990  40.1084050
  39.7517390  84.3112330  44.3443520  40.2080170  85.1217580  44.5703710
  39.4005600  83.9935470  45.1762010  42.0550000  89.8218670  51.5735820
  42.6992220  90.0278050  52.2509240  42.4179440  89.0607070  51.1206670
  35.6529170  74.6549980  44.8166040  35.5243800  74.6467880  45.7650960
  34.8291190  74.9933070  44.4657050  43.3282080  87.8251020  50.2913270
  43.9704310  87.1244180  50.4045440  43.8531430  88.6049460  50.1110160
  47.1737800  88.1099640  40.0152410  46.9475380  87.3930080  40.6077050
  46.7834000  87.8612080  39.1774160  45.1019700  88.6245920  53.4949330
  45.4375940  89.2112610  54.1727250  44.1820040  88.4938630  53.7247120
  32.6523100  76.4141100  54.2772740  31.9381620  76.6138020  54.8825350
  33.0718140  75.6380670  54.6487540  46.7554050  86.0271580  41.6766570
  46.4675750  86.4884270  42.4644450  47.5506220  85.5669350  41.9450790
  40.9308280  88.6737250  56.6637390  40.6105150  87.9546490  57.2083080
  40.2566640  89.3492320  56.7373450  38.9722450  89.5197700  41.6070540
  38.9632550  90.2527390  40.9915050  38.0520810  89.2729280  41.6997500
  34.5729090  84.7412590  42.3517300  33.9657040  85.4811490  42.3612600
  35.0478440  84.8311950  41.5255500  44.1461880  78.9063410  52.0274190
  44.5142700  78.0858620  52.3553760  43.2860080  78.9665300  52.4429840
  47.5123910  77.8620350  42.8361750  46.8837070  77.9666020  42.1219980
  47.0175830  78.0817130  43.6255630  41.9582050  89.5825940  40.2695730
  42.0594030  89.3789930  39.3397710  41.0583790  89.3284220  40.4743510
  39.4807940  80.1406300  44.2519630  38.7724090  80.6092640  44.6933240
  39.7652420  79.4828310  44.8864820  41.1063870  81.5603000  52.2512160
  41.6049120  82.0348820  52.9164010  41.2486820  80.6366520  52.4582190
  43.5123370  76.8656960  45.6915420  43.3891150  76.8843090  44.7424930
  44.4607930  76.9135900  45.8113820  37.6842960  78.4491380  41.6270340
  38.5333490  78.8861530  41.5610530  37.3174230  78.7611640  42.4542400
  48.3130730  77.7770960  53.0940550  47.8104330  78.5176360  53.4334360
  49.1287390  78.1654960  52.7777340  46.6052740  83.0204140  46.5401910
  45.6642880  83.0354370  46.7149600  46.9196810  82.2340100  46.9862210
  36.5834380  84.7023740  40.1005870  37.3497650  84.5905100  40.6631300
  36.6609070  84.0061710  39.4482640  35.2781140  82.1348810  40.7838760
  35.3584730  81.1876320  40.8956160  36.1700890  82.4655690  40.8899420
  32.9641330  88.3517770  43.7614810  32.0381110  88.5938910  43.7520220
  33.4297760  89.1792030  43.6399560  43.9218760  87.5770140  57.0234290
  43.3156920  87.6001740  56.2830040  43.6172870  86.8453180  57.5601540
  32.8051940  83.9563730  56.0194930  33.3090960  83.3771010  56.5911160
  32.0659360  84.2403960  56.5571300  39.7075560  86.6777920  39.5741220
  39.6026200  86.0630270  40.3002600  39.5399780  86.1543810  38.7904230
  39.8589880  85.3634720  55.5530450  39.0935550  85.9319720  55.4685120
  40.0405840  85.0710930  54.6598680  42.9478290  85.7397950  40.1783210
  42.3988390  86.1867250  40.8225950  43.5697550  85.2347200  40.7020880
  47.0013230  87.0940050  56.1105470  47.7422700  87.4315810  55.6072930
  46.2385910  87.2632110  55.5575240  34.8375020  82.0993320  56.9145000
  34.8780360  81.8007190  57.8230230  35.6920520  82.5000930  56.7552520
  38.6153410  84.6988870  42.0748510  39.0369830  84.5328740  42.9179900
  38.7404250  83.8889100  41.5803650  36.7780830  80.6785420  54.8819490
  36.2477290  80.1876370  54.2542830  37.4468900  81.1069620  54.3477420
  41.1281050  83.7226480  39.3225610  41.6486710  83.0075500  38.9566760
  41.7749450  84.3612350  39.6226120  45.6758890  85.1454880  54.6460680
  46.0899910  85.2999960  55.4951100  44.7409890  85.2710100  54.8086460
  46.1481060  82.4851040  56.6499830  46.7301830  81.7303360  56.5620310
  46.3242830  83.0158480  55.8731310  37.2653130  77.6447790  54.9616780
  37.1710000  77.0268540  54.2367650  36.6850520  78.3714080  54.7346690
  40.0314570  76.2021030  51.9944170  39.5831870  76.2245290  51.1489720
  39.3979770  75.8040050  52.5914470  40.4374120  85.0975360  52.6156610
  40.8562230  85.9408090  52.4432850  39.5182750  85.2347400  52.3863390
  42.7738020  82.8291540  53.9994450  42.8934230  82.2332680  54.7389290
  43.6332020  82.8661230  53.5795750  45.1125920  83.3828730  52.5756960
  44.5861140  83.9071350  51.9722100  45.4557260  84.0156120  53.2066690
  37.5112310  80.7722100  39.0206670  37.3101370  79.9089460  39.3820010
  37.3404360  80.6855460  38.0828270  39.5406790  79.3712890  55.2570270
  40.1306480  79.0628740  55.9448090  38.7227030  78.8992640  55.4130170
  44.3600220  78.9878700  55.4903290  43.6715740  78.3260240  55.4253280
  45.0806240  78.5416970  55.9351750  44.9900620  75.5830330  41.5493550
  45.2702910  74.7398230  41.9052970  44.2166350  75.8153440  42.0632300
  36.3095110  77.8722720  39.0084550  36.6121010  77.8790150  38.1003700
  37.0489700  77.5220580  39.5052210  39.5280040  76.8157340  39.9940750
  39.1802040  76.1381330  39.4143200  39.7292810  76.3546850  40.8084140
  35.3325240  87.1765140  39.8414350  35.7700110  87.7194810  40.4971930
  35.8172970  86.3512090  39.8510690  32.5471040  89.9654170  47.2934610
  32.8774050  89.0975230  47.0613250  32.9762040  90.1712690  48.1239570
  37.1432960  88.2963180  44.9536580  36.8428500  88.1728150  45.8540490
  37.0370450  87.4371770  44.5452310  48.6723430  90.3341760  54.3193550
  48.0725420  90.3934320  53.5757470  48.8017330  89.3946740  54.4490400
  49.9124880  88.0759580  39.6563260  49.0817840  88.1436230  40.1270490
  50.0896710  88.9663700  39.3530120  49.3681340  84.8207060  42.1597460
  50.1300250  85.3903710  42.2657150  49.3835710  84.2534260  42.9305770
  32.8685680  83.3444990  46.3905120  32.2134520  83.0756630  45.7464820
  33.7063630  83.2349470  45.9407100  50.3741310  85.6757160  47.0039390
  50.7450140  84.8924480  46.5975360  51.0143240  86.3646260  46.8256690
  47.3575070  87.0593740  52.4169710  46.5434910  87.4890900  52.6795500
  47.7649270  87.6712150  51.8038760  49.4200510  85.1141430  39.3169980
  49.6949350  86.0220310  39.1889200  49.2311250  85.0503960  40.2531970
  45.8176120  78.1386280  40.6123610  46.2361000  77.9517260  39.7720270
  45.5112180  77.2865330  40.9226540  49.3165850  83.0510420  44.3099410
  48.9409450  82.2838350  43.8780700  48.5868970  83.4333120  44.7974340
  33.9061610  83.7297560  50.9308460  34.2734650  83.6424960  51.8104480
  33.3372430  82.9664110  50.8315320  48.7065470  82.1981940  53.9438930
  48.4751560  81.9694690  53.0436880  48.9670020  83.1181490  53.8983820
  33.4577610  80.6406650  54.8366880  32.5633660  80.6073410  55.1760590
  33.9975160  80.8393440  55.6018130  47.1453540  77.4238370  56.7218630
  48.0223720  77.4321770  57.1052630  47.1574380  76.6869210  56.1110980
  32.0823760  80.5543920  42.3330450  31.1787840  80.8174120  42.1582110
  32.5664380  80.8255090  41.5530410  48.5916810  81.2767910  47.6106650
  49.1154290  80.7830560  46.9796820  49.1776230  81.4118270  48.3554220
  48.7706530  81.3607780  51.1326200  47.8209240  81.3271320  51.2471190
  48.9519540  82.2707890  50.8975970  34.6250970  79.6109460  40.2424830
  35.3342670  79.1892680  39.7572110  33.9090910  79.6784690  39.6108180
  34.2725130  75.6648790  39.2827480  34.9953260  76.2057730  39.6008700
  34.5449650  75.3912210  38.4069020  48.0816780  80.5341260  43.5499060
  48.5775900  80.3012130  44.3347940  47.8832850  79.6953100  43.1336700
  33.9617320  74.9154980  49.1850100  34.6093510  74.3652360  48.7445260
  34.3819160  75.1698130  50.0065910  49.5103940  79.1702210  46.0836740
  49.4003220  79.0158250  47.0219010  50.2711530  78.6423150  45.8412150
  47.8569660  75.1096340  52.5419740  48.4941880  75.7230480  52.9078930
  48.0044550  75.1457000  51.5968970  50.3994210  77.0010130  39.3242880
  51.3243520  76.8691310  39.1161170  50.3770000  77.0802950  40.2779330
  50.4732700  77.7720790  41.9499590  49.6784200  77.7065910  42.4792500
  50.6775980  78.7071430  41.9384940  33.7149320  75.0710650  51.9275420
  33.3664140  75.5274470  52.6933600  33.3837020  74.1767780  52.0097850
  35.3213690  88.2430250  56.0928610  35.2783320  87.8723160  56.9743070
  35.4524700  89.1807820  56.2330430  39.0219720  89.7989840  51.6938330
  38.7811080  90.0664400  50.8068850  39.9622360  89.9695570  51.7489190
  41.2274140  76.2622530  55.4494840  41.1663030  76.8544360  56.1990250
  42.1674520  76.1548490  55.3045100  43.8648700  75.9192590  55.0887130
  44.4789110  76.2371880  54.4268210  44.4098260  75.4341180  55.7082990
  34.3869960  74.5986850  55.2026190  34.9352950  74.4174900  54.4392300
  34.4525270  73.8080960  55.7382500  44.6056740  74.4824730  51.4156420
  43.7316580  74.8159840  51.2129350  44.4967490  74.0097910  52.2408290
  45.5128720  76.6895600  52.7998140  45.1842080  75.8747360  52.4199870
  46.4611020  76.6465410  52.6763830  34.7913950  88.5550880  52.1634430
  34.0648010  87.9356170  52.0960380  34.8523100  88.9491490  51.2932510
  42.3531560  75.3994570  50.3549330  41.5703350  75.8740070  50.6346090
  42.0594490  74.4949400  50.2462510  46.9052630  76.1017670  48.3998420
  47.3460720  76.0462770  47.5520020  46.6360220  77.0175680  48.4708600
  48.7691200  75.7332910  46.4107240  48.7079600  74.7894130  46.2638260
  49.5483230  75.8413000  46.9560700  33.6971970  75.7042050  42.8763050
  34.4551330  75.8170930  42.3027080  33.2349140  76.5411250  42.8306480
  40.2385780  77.8181320  45.8665360  39.4260290  77.4438210  45.5261240
  40.7427420  77.0626400  46.1686550  44.7410760  74.4823770  47.1048430
  45.3440130  75.0543980  47.5796950  44.0003750  75.0463210  46.8822330
  47.8845360  74.8845330  42.3788710  48.0795990  75.7828780  42.6456140
  47.0975230  74.6532410  42.8721660  36.0697120  76.2306100  41.4165020
  36.5989880  75.4435900  41.2872970  36.7025440  76.9097290  41.6500550
  38.2634960  75.9681240  44.4710410  37.6337700  75.2668550  44.6380540
  37.7240100  76.7285370  44.2543570  38.3890520  75.2465220  56.9062900
  38.1074790  75.7498820  56.1423720  38.7710220  74.4486970  56.5405030
  36.4414410  88.6305610  41.6976910  35.8123290  89.0990710  42.2462740
  36.5562240  87.7854830  42.1323100  44.9905980  74.6618800  57.4843370
  44.8771430  74.9813410  58.3794890  45.8075720  75.0631310  57.1880650
  43.8964130  82.6811270  27.8478110  43.8158180  81.7665880  27.5769820
  43.4828550  83.1778340  27.1417820  42.0282170  84.4590290  29.7287380
  41.2524270  83.9790730  30.0185950  42.6795100  83.7795940  29.5543540
  36.0448000  84.7710100  30.6063140  35.2132880  84.5158810  31.0059650
  36.6528980  84.8420870  31.3421060  46.0489600  88.8650480  28.5086510
  45.5871130  88.0937720  28.8373680  46.8615150  88.8916550  29.0138960
  36.0249260  88.8050190  30.8021160  36.3277300  87.9147930  30.6231380
  36.7692850  89.3620410  30.5743410  34.4539950  79.7311990  24.3905530
  33.5656650  80.0727960  24.2885410  34.7381140  79.5312310  23.4986360
  32.4172960  82.3317640  30.2745230  32.9889070  81.5639840  30.2748870
  32.4174500  82.6306400  29.3651840  41.4691160  87.1347480  29.7357540
  41.3999440  86.1937420  29.5746670  42.2311020  87.2248890  30.3080110
  33.6597830  77.7402000  32.0614160  33.4800670  76.8427750  32.3416920
  33.2577910  78.2873870  32.7361110  42.4996330  79.9417860  29.9626470
  42.8761150  79.0689740  29.8500140  42.4015840  80.2776560  29.0716910
  36.6301340  78.3143490  25.4243910  36.7368090  79.2147220  25.7312670
  35.7193700  78.2661460  25.1338560  46.2820450  77.4368300  26.8954810
  47.1030070  76.9464870  26.9380290  46.3154530  78.0265960  27.6486650
  34.2784500  80.2362500  30.6696500  34.9594610  80.5000870  31.2883900
  33.9632550  79.3963370  31.0034510  38.4709070  81.2829860  29.7569090
  38.9787290  81.7810830  30.3974110  39.0022310  80.5065060  29.5808450
  50.5720000  79.4535050  33.4598440  49.8672170  79.8416760  32.9413550
  50.8377920  80.1485340  34.0619370  36.7545170  75.9228420  34.0232510
  36.7563610  76.4400810  33.2178410  35.9249480  75.4458600  34.0002440
  43.1416260  86.0347730  25.5222410  42.5233530  86.4997180  24.9585130
  43.6539510  86.7275210  25.9391920  38.0048020  85.5623600  32.2006010
  37.6717400  86.1892520  32.8427080  38.1814700  86.0885480  31.4207680
  46.5181930  79.3768680  29.6682350  45.8137500  79.6653570  30.2485460
  46.8794090  80.1868790  29.3081910  36.4360500  77.6338380  32.0302960
  36.7777310  78.4780430  31.7356830  35.4976310  77.7822120  32.1468300
  37.2167120  87.5304400  34.0155190  37.8341120  88.2055480  33.7339640
  36.3560240  87.9392380  33.9242690  32.5099460  86.7204260  22.8962040
  32.1327440  87.2091360  22.1646940  32.7672530  87.3929540  23.5268570
  48.1344710  88.9943810  31.9309830  47.4508230  89.6642920  31.9226500
  48.6739000  89.1924460  31.1654690  49.5868850  78.8223470  30.0591560
  48.6393760  78.8562450  30.1906990  49.9118840  79.6362420  30.4440920
  40.1188390  75.1220650  28.3547550  40.4263370  74.5667540  27.6383050
  39.1889090  75.2565110  28.1720540  46.9648870  87.5604160  25.7345180
  46.8545200  86.6178490  25.8594600  46.9617120  87.9219800  26.6207940
  45.0688890  85.7417780  31.9737620  45.4857680  85.5277890  31.1391080
  45.7928710  85.9990570  32.5446240  42.5069150  83.1869480  25.0907670
  41.5798430  83.1206860  25.3196140  42.6593970  84.1249610  24.9762910
  42.4938230  79.4586480  22.0874830  41.5541900  79.6200440  22.1727290
  42.8121490  80.1772160  21.5410820  49.0150990  84.1405000  32.0653860
  48.1869620  84.2098090  31.5903990  49.6101470  84.7259310  31.5969690
  46.5366440  84.7489780  25.5942920  45.9178860  84.4109330  24.9469220
  46.5190890  84.1049540  26.3022110  45.9793000  80.9274320  33.0108730
  45.5664180  81.7528030  33.2648720  45.2468950  80.3419360  32.8185090
  38.1125790  83.7134220  27.8727400  37.7082790  83.0011470  27.3773300
  38.1988910  83.3687460  28.7615440  38.5807490  87.4001780  30.0366610
  38.2835780  86.7947250  29.3574390  39.5307310  87.4379090  29.9255970
  36.8254410  80.4877430  31.6526440  37.3769000  80.5972770  30.8779690
  37.3397920  80.8615030  32.3681670  37.6725920  87.1383470  36.6874410
  36.7754450  87.3623440  36.9347810  37.6978790  87.2618410  35.7385810
  44.7131140  83.9876590  22.6015670  45.1524420  83.1499020  22.4553490
  45.4259560  84.6205990  22.6879810  36.4997140  84.0096790  35.2631780
  36.3604910  84.8819590  35.6319180  35.6178500  83.6669600  35.1179720
  42.8226520  88.9272660  26.5696910  43.2622430  89.6696990  26.1552300
  42.7613410  89.1699230  27.4935870  38.2977490  89.9518490  37.4716930
  38.2692920  90.3561440  36.6045360  38.1342460  89.0228850  37.3088530
  48.2948280  75.2419400  20.9156710  47.9820940  75.3346230  21.8155780
  49.0560750  75.8200430  20.8654140  34.8130420  82.6079200  25.3734050
  34.6928020  83.3341290  24.7615320  34.5031310  81.8382110  24.8961960
  32.4515790  85.7794340  31.1802690  32.5296210  85.9143110  30.2358410
  33.0657470  85.0710230  31.3730810  33.6963420  87.4794530  27.5908870
  33.2891500  87.6209120  26.7362470  34.5876430  87.1954690  27.3880080
  49.6525560  87.9258440  35.9281110  49.7788620  87.6870320  35.0098290
  49.6946940  87.0942980  36.4003190  45.1922830  89.4229340  22.4857920
  44.4987990  89.4206630  21.8260200  45.9345690  88.9988660  22.0552090
  49.5049570  79.9790900  36.8930850  48.8893840  80.4870570  36.3646310
  49.1845990  79.0789230  36.8356790  32.5075310  86.8208510  33.7197150
  32.6706350  86.3513870  32.9016520  32.9727760  86.3132070  34.3845990
  37.2794080  75.9514270  28.7557720  36.8362230  76.7323810  28.4242240
  37.8379070  76.2744160  29.4628660  41.5663890  78.8182790  34.3593040
  41.1043260  79.0265810  35.1712980  41.1642000  78.0042140  34.0563710
  46.5668400  80.0391740  35.4889700  45.7161990  79.7397490  35.8098770
  46.4070190  80.2833750  34.5773520  43.6618110  81.5393490  37.5888490
  43.9871520  80.7057240  37.2490720  44.4498440  82.0622010  37.7366820
  40.3952900  75.5724970  23.6363550  39.7707080  75.5684840  24.3616860
  40.3083020  74.7055930  23.2399520  39.3169980  76.4961600  30.6147320
  39.6142310  77.4024430  30.5339340  39.8655540  76.0080380  30.0006890
  37.0708300  81.0747840  26.4838970  36.8449220  80.8585010  27.3885590
  36.2900830  81.5076300  26.1384940  44.3006060  81.0811210  25.0829620
  43.7014950  81.8047010  24.8993240  44.8485670  81.0187990  24.3006070
  39.5107510  81.9733420  37.1499240  39.4151110  81.0328150  36.9999640
  40.3539490  82.1948490  36.7547310  42.9070930  79.7174750  27.1132900
  43.3000500  80.0346950  26.3001590  43.2687780  78.8386630  27.2277420
  34.6418050  78.3847090  35.3033020  34.2481440  79.2322300  35.5105800
  33.9536450  77.7473460  35.4941660  41.2163100  78.4682060  38.3729760
  40.5261420  78.2754260  39.0075850  41.9595400  78.7516700  38.9054060
  31.9435100  76.3075550  29.3363100  31.6548150  76.8778410  30.0488080
  32.6880860  75.8280000  29.6994330  32.1305330  80.2495670  20.5465820
  32.0480000  81.1926430  20.6880810  31.7788390  80.1070580  19.6678170
  43.4926070  82.3080500  31.2083680  42.7607190  82.8167310  31.5573780
  43.0950410  81.4910480  30.9072460  39.9303460  78.9834700  29.6136170
  39.9339520  78.5424650  28.7640710  40.8254580  79.3052030  29.7207990
  35.7805840  78.8661190  28.5730380  35.4405890  79.3436420  29.3297430
  35.0183160  78.4126310  28.2131480  39.9923610  79.9846780  22.6042930
  40.1136430  79.9433260  23.5528750  39.6072120  80.8470930  22.4489660
  43.9551980  77.7614180  30.6206620  43.9724720  78.2122830  31.4648470
  43.7067560  76.8619820  30.8340060  39.0045110  82.2947920  22.0026230
  38.4362010  81.8466170  21.3762140  39.7134110  82.6540700  21.4691380
  47.3822730  75.1746360  36.4593000  47.7068500  74.4436020  36.9850980
  47.4179240  74.8560000  35.5573990  34.0814290  86.1959940  35.8792960
  33.6969080  85.5553610  36.4775920  34.3926480  86.8996060  36.4487690
  40.2311430  83.0436480  31.3601580  40.5981560  82.5695050  32.1062920
  40.0416490  83.9178050  31.7009920  33.0951920  77.7880170  27.4895050
  32.8098840  77.4235840  28.3273670  33.0330780  77.0560630  26.8758190
  38.0210800  82.0845120  33.6785790  37.7167870  82.9637100  33.9036150
  38.9757260  82.1444910  33.7143230  36.5492590  86.2906110  24.2752640
  35.7754850  85.7503730  24.1151360  37.2787220  85.7712720  23.9370400
  47.3080570  85.2871470  30.0679030  48.0279690  85.7826760  29.6775140
  47.1062390  84.6089360  29.4232900  42.7690510  76.6809430  24.2108420
  41.9555120  76.1822600  24.1353730  42.5752460  77.5207680  23.7944770
  42.6899370  85.3580530  35.9548030  42.6236680  84.4376200  35.7005620
  42.0604510  85.4555970  36.6692670  45.4838900  81.0529080  22.5070580
  46.3718520  81.3646310  22.3321920  45.4543990  80.1801330  22.1151160
  36.5929990  85.9586490  27.9131450  37.1108660  85.1554750  27.8588340
  36.1414010  85.8965630  28.7548280  41.4799490  87.2252770  23.1858750
  41.8215190  87.9695000  22.6902070  40.6512200  87.5383890  23.5483580
  34.0774530  82.9247860  34.8257150  33.7189470  83.5901710  35.4130490
  33.7829090  82.0931410  35.1969770  37.2787650  83.3832100  37.7096700
  36.9787790  83.5289280  36.8124520  38.0498890  82.8237390  37.6170090
  42.6216100  88.1801100  35.7051830  42.6360640  87.2482060  35.4870740
  41.9141200  88.2660860  36.3441600  47.7553170  82.3640920  21.9750440
  47.6716890  82.7955140  21.1246880  48.4747360  82.8239270  22.4077260
  48.8327310  84.8208440  35.0520410  48.1075500  85.4137220  34.8549800
  49.3602770  84.8131980  34.2533780  48.7840420  89.2183180  24.7032570
  48.1416580  88.5638800  24.9776290  48.3971080  89.6238270  23.9273240
  44.3626900  86.5468610  28.5504260  44.7150720  85.9496740  27.8905630
  43.4789230  86.2212840  28.7212510  40.4490180  87.3066300  25.9574670
  41.1361310  87.8535510  26.3382260  39.6622600  87.8507030  25.9924280
  32.5882580  82.9239120  21.4491750  33.4577430  83.2063920  21.7327670
  32.0972900  83.7374990  21.3340560  39.7517390  84.3112330  25.5700030
  40.2080170  85.1217580  25.7960220  39.4005600  83.9935470  26.4018520
  42.0550000  89.8218670  32.7992330  42.6992220  90.0278050  33.4765750
  42.4179440  89.0607070  32.3463180  35.6529170  74.6549980  26.0422550
  35.5243800  74.6467880  26.9907470  34.8291190  74.9933070  25.6913560
  43.3282080  87.8251020  31.5169780  43.9704310  87.1244180  31.6301950
  43.8531430  88.6049460  31.3366670  47.1737800  88.1099640  21.2408920
  46.9475380  87.3930080  21.8333560  46.7834000  87.8612080  20.4030670
  45.1019700  88.6245920  34.7205840  45.4375940  89.2112610  35.3983760
  44.1820040  88.4938630  34.9503630  32.6523100  76.4141100  35.5029250
  31.9381620  76.6138020  36.1081860  33.0718140  75.6380670  35.8744050
  46.7554050  86.0271580  22.9023080  46.4675750  86.4884270  23.6900960
  47.5506220  85.5669350  23.1707300  40.9308280  88.6737250  37.8893900
  40.6105150  87.9546490  38.4339590  40.2566640  89.3492320  37.9629960
  38.9722450  89.5197700  22.8327050  38.9632550  90.2527390  22.2171560
  38.0520810  89.2729280  22.9254010  34.5729090  84.7412590  23.5773810
  33.9657040  85.4811490  23.5869110  35.0478440  84.8311950  22.7512010
  44.1461880  78.9063410  33.2530700  44.5142700  78.0858620  33.5810270
  43.2860080  78.9665300  33.6686350  47.5123910  77.8620350  24.0618260
  46.8837070  77.9666020  23.3476490  47.0175830  78.0817130  24.8512140
  41.9582050  89.5825940  21.4952240  42.0594030  89.3789930  20.5654220
  41.0583790  89.3284220  21.7000020  39.4807940  80.1406300  25.4776140
  38.7724090  80.6092640  25.9189750  39.7652420  79.4828310  26.1121330
  41.1063870  81.5603000  33.4768670  41.6049120  82.0348820  34.1420520
  41.2486820  80.6366520  33.6838700  43.5123370  76.8656960  26.9171930
  43.3891150  76.8843090  25.9681440  44.4607930  76.9135900  27.0370330
  37.6842960  78.4491380  22.8526850  38.5333490  78.8861530  22.7867040
  37.3174230  78.7611640  23.6798910  48.3130730  77.7770960  34.3197060
  47.8104330  78.5176360  34.6590870  49.1287390  78.1654960  34.0033850
  46.6052740  83.0204140  27.7658420  45.6642880  83.0354370  27.9406110
  46.9196810  82.2340100  28.2118720  36.5834380  84.7023740  21.3262380
  37.3497650  84.5905100  21.8887810  36.6609070  84.0061710  20.6739150
  35.2781140  82.1348810  22.0095270  35.3584730  81.1876320  22.1212670
  36.1700890  82.4655690  22.1155930  32.9641330  88.3517770  24.9871320
  32.0381110  88.5938910  24.9776730  33.4297760  89.1792030  24.8656070
  43.9218760  87.5770140  38.2490800  43.3156920  87.6001740  37.5086550
  43.6172870  86.8453180  38.7858050  32.8051940  83.9563730  37.2451440
  33.3090960  83.3771010  37.8167670  32.0659360  84.2403960  37.7827810
  39.7075560  86.6777920  20.7997730  39.6026200  86.0630270  21.5259110
  39.5399780  86.1543810  20.0160740  39.8589880  85.3634720  36.7786960
  39.0935550  85.9319720  36.6941630  40.0405840  85.0710930  35.8855190
  42.9478290  85.7397950  21.4039720  42.3988390  86.1867250  22.0482460
  43.5697550  85.2347200  21.9277390  47.0013230  87.0940050  37.3361980
  47.7422700  87.4315810  36.8329440  46.2385910  87.2632110  36.7831750
  34.8375020  82.0993320  38.1401510  34.8780360  81.8007190  39.0486740
  35.6920520  82.5000930  37.9809030  38.6153410  84.6988870  23.3005020
  39.0369830  84.5328740  24.1436410  38.7404250  83.8889100  22.8060160
  36.7780830  80.6785420  36.1076000  36.2477290  80.1876370  35.4799340
  37.4468900  81.1069620  35.5733930  41.1281050  83.7226480  20.5482120
  41.6486710  83.0075500  20.1823270  41.7749450  84.3612350  20.8482630
  45.6758890  85.1454880  35.8717190  46.0899910  85.2999960  36.7207610
  44.7409890  85.2710100  36.0342970  46.1481060  82.4851040  37.8756340
  46.7301830  81.7303360  37.7876820  46.3242830  83.0158480  37.0987820
  37.2653130  77.6447790  36.1873290  37.1710000  77.0268540  35.4624160
  36.6850520  78.3714080  35.9603200  40.0314570  76.2021030  33.2200680
  39.5831870  76.2245290  32.3746230  39.3979770  75.8040050  33.8170980
  40.4374120  85.0975360  33.8413120  40.8562230  85.9408090  33.6689360
  39.5182750  85.2347400  33.6119900  42.7738020  82.8291540  35.2250960
  42.8934230  82.2332680  35.9645800  43.6332020  82.8661230  34.8052260
  45.1125920  83.3828730  33.8013470  44.5861140  83.9071350  33.1978610
  45.4557260  84.0156120  34.4323200  37.5112310  80.7722100  20.2463180
  37.3101370  79.9089460  20.6076520  37.3404360  80.6855460  19.3084780
  39.5406790  79.3712890  36.4826780  40.1306480  79.0628740  37.1704600
  38.7227030  78.8992640  36.6386680  44.3600220  78.9878700  36.7159800
  43.6715740  78.3260240  36.6509790  45.0806240  78.5416970  37.1608260
  44.9900620  75.5830330  22.7750060  45.2702910  74.7398230  23.1309480
  44.2166350  75.8153440  23.2888810  36.3095110  77.8722720  20.2341060
  36.6121010  77.8790150  19.3260210  37.0489700  77.5220580  20.7308720
  39.5280040  76.8157340  21.2197260  39.1802040  76.1381330  20.6399710
  39.7292810  76.3546850  22.0340650  35.3325240  87.1765140  21.0670860
  35.7700110  87.7194810  21.7228440  35.8172970  86.3512090  21.0767200
  32.5471040  89.9654170  28.5191120  32.8774050  89.0975230  28.2869760
  32.9762040  90.1712690  29.3496080  37.1432960  88.2963180  26.1793090
  36.8428500  88.1728150  27.0797000  37.0370450  87.4371770  25.7708820
  48.6723430  90.3341760  35.5450060  48.0725420  90.3934320  34.8013980
  48.8017330  89.3946740  35.6746910  49.9124880  88.0759580  20.8819770
  49.0817840  88.1436230  21.3527000  50.0896710  88.9663700  20.5786630
  49.3681340  84.8207060  23.3853970  50.1300250  85.3903710  23.4913660
  49.3835710  84.2534260  24.1562280  32.8685680  83.3444990  27.6161630
  32.2134520  83.0756630  26.9721330  33.7063630  83.2349470  27.1663610
  50.3741310  85.6757160  28.2295900  50.7450140  84.8924480  27.8231870
  51.0143240  86.3646260  28.0513200  47.3575070  87.0593740  33.6426220
  46.5434910  87.4890900  33.9052010  47.7649270  87.6712150  33.0295270
  49.4200510  85.1141430  20.5426490  49.6949350  86.0220310  20.4145710
  49.2311250  85.0503960  21.4788480  45.8176120  78.1386280  21.8380120
  46.2361000  77.9517260  20.9976780  45.5112180  77.2865330  22.1483050
  49.3165850  83.0510420  25.5355920  48.9409450  82.2838350  25.1037210
  48.5868970  83.4333120  26.0230850  33.9061610  83.7297560  32.1564970
  34.2734650  83.6424960  33.0360990  33.3372430  82.9664110  32.0571830
  48.7065470  82.1981940  35.1695440  48.4751560  81.9694690  34.2693390
  48.9670020  83.1181490  35.1240330  33.4577610  80.6406650  36.0623390
  32.5633660  80.6073410  36.4017100  33.9975160  80.8393440  36.8274640
  47.1453540  77.4238370  37.9475140  48.0223720  77.4321770  38.3309140
  47.1574380  76.6869210  37.3367490  32.0823760  80.5543920  23.5586960
  31.1787840  80.8174120  23.3838620  32.5664380  80.8255090  22.7786920
  48.5916810  81.2767910  28.8363160  49.1154290  80.7830560  28.2053330
  49.1776230  81.4118270  29.5810730  48.7706530  81.3607780  32.3582710
  47.8209240  81.3271320  32.4727700  48.9519540  82.2707890  32.1232480
  34.6250970  79.6109460  21.4681340  35.3342670  79.1892680  20.9828620
  33.9090910  79.6784690  20.8364690  34.2725130  75.6648790  20.5083990
  34.9953260  76.2057730  20.8265210  34.5449650  75.3912210  19.6325530
  48.0816780  80.5341260  24.7755570  48.5775900  80.3012130  25.5604450
  47.8832850  79.6953100  24.3593210  33.9617320  74.9154980  30.4106610
  34.6093510  74.3652360  29.9701770  34.3819160  75.1698130  31.2322420
  49.5103940  79.1702210  27.3093250  49.4003220  79.0158250  28.2475520
  50.2711530  78.6423150  27.0668660  47.8569660  75.1096340  33.7676250
  48.4941880  75.7230480  34.1335440  48.0044550  75.1457000  32.8225480
  50.3994210  77.0010130  20.5499390  51.3243520  76.8691310  20.3417680
  50.3770000  77.0802950  21.5035840  50.4732700  77.7720790  23.1756100
  49.6784200  77.7065910  23.7049010  50.6775980  78.7071430  23.1641450
  33.7149320  75.0710650  33.1531930  33.3664140  75.5274470  33.9190110
  33.3837020  74.1767780  33.2354360  35.3213690  88.2430250  37.3185120
  35.2783320  87.8723160  38.1999580  35.4524700  89.1807820  37.4586940
  39.0219720  89.7989840  32.9194840  38.7811080  90.0664400  32.0325360
  39.9622360  89.9695570  32.9745700  41.2274140  76.2622530  36.6751350
  41.1663030  76.8544360  37.4246760  42.1674520  76.1548490  36.5301610
  43.8648700  75.9192590  36.3143640  44.4789110  76.2371880  35.6524720
  44.4098260  75.4341180  36.9339500  34.3869960  74.5986850  36.4282700
  34.9352950  74.4174900  35.6648810  34.4525270  73.8080960  36.9639010
  44.6056740  74.4824730  32.6412930  43.7316580  74.8159840  32.4385860
  44.4967490  74.0097910  33.4664800  45.5128720  76.6895600  34.0254650
  45.1842080  75.8747360  33.6456380  46.4611020  76.6465410  33.9020340
  34.7913950  88.5550880  33.3890940  34.0648010  87.9356170  33.3216890
  34.8523100  88.9491490  32.5189020  42.3531560  75.3994570  31.5805840
  41.5703350  75.8740070  31.8602600  42.0594490  74.4949400  31.4719020
  46.9052630  76.1017670  29.6254930  47.3460720  76.0462770  28.7776530
  46.6360220  77.0175680  29.6965110  48.7691200  75.7332910  27.6363750
  48.7079600  74.7894130  27.4894770  49.5483230  75.8413000  28.1817210
  33.6971970  75.7042050  24.1019560  34.4551330  75.8170930  23.5283590
  33.2349140  76.5411250  24.0562990  40.2385780  77.8181320  27.0921870
  39.4260290  77.4438210  26.7517750  40.7427420  77.0626400  27.3943060
  44.7410760  74.4823770  28.3304940  45.3440130  75.0543980  28.8053460
  44.0003750  75.0463210  28.1078840  47.8845360  74.8845330  23.6045220
  48.0795990  75.7828780  23.8712650  47.0975230  74.6532410  24.0978170
  36.0697120  76.2306100  22.6421530  36.5989880  75.4435900  22.5129480
  36.7025440  76.9097290  22.8757060  38.2634960  75.9681240  25.6966920
  37.6337700  75.2668550  25.8637050  37.7240100  76.7285370  25.4800080
  38.3890520  75.2465220  38.1319410  38.1074790  75.7498820  37.3680230
  38.7710220  74.4486970  37.7661540  36.4414410  88.6305610  22.9233420
  35.8123290  89.0990710  23.4719250  36.5562240  87.7854830  23.3579610
  44.9905980  74.6618800  38.7099880  44.8771430  74.9813410  39.6051400
  45.8075720  75.0631310  38.4137160  43.8964130  82.6811270   9.0734620
  43.8158180  81.7665880   8.8026330  43.4828550  83.1778340   8.3674330
  42.0282170  84.4590290  10.9543890  41.2524270  83.9790730  11.2442460
  42.6795100  83.7795940  10.7800050  36.0448000  84.7710100  11.8319650
  35.2132880  84.5158810  12.2316160  36.6528980  84.8420870  12.5677570
  46.0489600  88.8650480   9.7343020  45.5871130  88.0937720  10.0630190
  46.8615150  88.8916550  10.2395470  36.0249260  88.8050190  12.0277670
  36.3277300  87.9147930  11.8487890  36.7692850  89.3620410  11.7999920
  34.4539950  79.7311990   5.6162040  33.5656650  80.0727960   5.5141920
  34.7381140  79.5312310   4.7242870  32.4172960  82.3317640  11.5001740
  32.9889070  81.5639840  11.5005380  32.4174500  82.6306400  10.5908350
  41.4691160  87.1347480  10.9614050  41.3999440  86.1937420  10.8003180
  42.2311020  87.2248890  11.5336620  33.6597830  77.7402000  13.2870670
  33.4800670  76.8427750  13.5673430  33.2577910  78.2873870  13.9617620
  42.4996330  79.9417860  11.1882980  42.8761150  79.0689740  11.0756650
  42.4015840  80.2776560  10.2973420  36.6301340  78.3143490   6.6500420
  36.7368090  79.2147220   6.9569180  35.7193700  78.2661460   6.3595070
  46.2820450  77.4368300   8.1211320  47.1030070  76.9464870   8.1636800
  46.3154530  78.0265960   8.8743160  34.2784500  80.2362500  11.8953010
  34.9594610  80.5000870  12.5140410  33.9632550  79.3963370  12.2291020
  38.4709070  81.2829860  10.9825600  38.9787290  81.7810830  11.6230620
  39.0022310  80.5065060  10.8064960  50.5720000  79.4535050  14.6854950
  49.8672170  79.8416760  14.1670060  50.8377920  80.1485340  15.2875880
  36.7545170  75.9228420  15.2489020  36.7563610  76.4400810  14.4434920
  35.9249480  75.4458600  15.2258950  43.1416260  86.0347730   6.7478920
  42.5233530  86.4997180   6.1841640  43.6539510  86.7275210   7.1648430
  38.0048020  85.5623600  13.4262520  37.6717400  86.1892520  14.0683590
  38.1814700  86.0885480  12.6464190  46.5181930  79.3768680  10.8938860
  45.8137500  79.6653570  11.4741970  46.8794090  80.1868790  10.5338420
  36.4360500  77.6338380  13.2559470  36.7777310  78.4780430  12.9613340
  35.4976310  77.7822120  13.3724810  37.2167120  87.5304400  15.2411700
  37.8341120  88.2055480  14.9596150  36.3560240  87.9392380  15.1499200
  32.5099460  86.7204260   4.1218550  32.1327440  87.2091360   3.3903450
  32.7672530  87.3929540   4.7525080  48.1344710  88.9943810  13.1566340
  47.4508230  89.6642920  13.1483010  48.6739000  89.1924460  12.3911200
  49.5868850  78.8223470  11.2848070  48.6393760  78.8562450  11.4163500
  49.9118840  79.6362420  11.6697430  40.1188390  75.1220650   9.5804060
  40.4263370  74.5667540   8.8639560  39.1889090  75.2565110   9.3977050
  46.9648870  87.5604160   6.9601690  46.8545200  86.6178490   7.0851110
  46.9617120  87.9219800   7.8464450  45.0688890  85.7417780  13.1994130
  45.4857680  85.5277890  12.3647590  45.7928710  85.9990570  13.7702750
  42.5069150  83.1869480   6.3164180  41.5798430  83.1206860   6.5452650
  42.6593970  84.1249610   6.2019420  42.4938230  79.4586480   3.3131340
  41.5541900  79.6200440   3.3983800  42.8121490  80.1772160   2.7667330
  49.0150990  84.1405000  13.2910370  48.1869620  84.2098090  12.8160500
  49.6101470  84.7259310  12.8226200  46.5366440  84.7489780   6.8199430
  45.9178860  84.4109330   6.1725730  46.5190890  84.1049540   7.5278620
  45.9793000  80.9274320  14.2365240  45.5664180  81.7528030  14.4905230
  45.2468950  80.3419360  14.0441600  38.1125790  83.7134220   9.0983910
  37.7082790  83.0011470   8.6029810  38.1988910  83.3687460   9.9871950
  38.5807490  87.4001780  11.2623120  38.2835780  86.7947250  10.5830900
  39.5307310  87.4379090  11.1512480  36.8254410  80.4877430  12.8782950
  37.3769000  80.5972770  12.1036200  37.3397920  80.8615030  13.5938180
  37.6725920  87.1383470  17.9130920  36.7754450  87.3623440  18.1604320
  37.6978790  87.2618410  16.9642320  44.7131140  83.9876590   3.8272180
  45.1524420  83.1499020   3.6810000  45.4259560  84.6205990   3.9136320
  36.4997140  84.0096790  16.4888290  36.3604910  84.8819590  16.8575690
  35.6178500  83.6669600  16.3436230  42.8226520  88.9272660   7.7953420
  43.2622430  89.6696990   7.3808810  42.7613410  89.1699230   8.7192380
  38.2977490  89.9518490  18.6973440  38.2692920  90.3561440  17.8301870
  38.1342460  89.0228850  18.5345040  48.2948280  75.2419400   2.1413220
  47.9820940  75.3346230   3.0412290  49.0560750  75.8200430   2.0910650
  34.8130420  82.6079200   6.5990560  34.6928020  83.3341290   5.9871830
  34.5031310  81.8382110   6.1218470  32.4515790  85.7794340  12.4059200
  32.5296210  85.9143110  11.4614920  33.0657470  85.0710230  12.5987320
  33.6963420  87.4794530   8.8165380  33.2891500  87.6209120   7.9618980
  34.5876430  87.1954690   8.6136590  49.6525560  87.9258440  17.1537620
  49.7788620  87.6870320  16.2354800  49.6946940  87.0942980  17.6259700
  45.1922830  89.4229340   3.7114430  44.4987990  89.4206630   3.0516710
  45.9345690  88.9988660   3.2808600  49.5049570  79.9790900  18.1187360
  48.8893840  80.4870570  17.5902820  49.1845990  79.0789230  18.0613300
  32.5075310  86.8208510  14.9453660  32.6706350  86.3513870  14.1273030
  32.9727760  86.3132070  15.6102500  37.2794080  75.9514270   9.9814230
  36.8362230  76.7323810   9.6498750  37.8379070  76.2744160  10.6885170
  41.5663890  78.8182790  15.5849550  41.1043260  79.0265810  16.3969490
  41.1642000  78.0042140  15.2820220  46.5668400  80.0391740  16.7146210
  45.7161990  79.7397490  17.0355280  46.4070190  80.2833750  15.8030030
  43.6618110  81.5393490  18.8145000  43.9871520  80.7057240  18.4747230
  44.4498440  82.0622010  18.9623330  40.3952900  75.5724970   4.8620060
  39.7707080  75.5684840   5.5873370  40.3083020  74.7055930   4.4656030
  39.3169980  76.4961600  11.8403830  39.6142310  77.4024430  11.7595850
  39.8655540  76.0080380  11.2263400  37.0708300  81.0747840   7.7095480
  36.8449220  80.8585010   8.6142100  36.2900830  81.5076300   7.3641450
  44.3006060  81.0811210   6.3086130  43.7014950  81.8047010   6.1249750
  44.8485670  81.0187990   5.5262580  39.5107510  81.9733420  18.3755750
  39.4151110  81.0328150  18.2256150  40.3539490  82.1948490  17.9803820
  42.9070930  79.7174750   8.3389410  43.3000500  80.0346950   7.5258100
  43.2687780  78.8386630   8.4533930  34.6418050  78.3847090  16.5289530
  34.2481440  79.2322300  16.7362310  33.9536450  77.7473460  16.7198170
  41.2163100  78.4682060  19.5986270  40.5261420  78.2754260  20.2332360
  41.9595400  78.7516700  20.1310570  31.9435100  76.3075550  10.5619610
  31.6548150  76.8778410  11.2744590  32.6880860  75.8280000  10.9250840
  43.4926070  82.3080500  12.4340190  42.7607190  82.8167310  12.7830290
  43.0950410  81.4910480  12.1328970  39.9303460  78.9834700  10.8392680
  39.9339520  78.5424650   9.9897220  40.8254580  79.3052030  10.9464500
  35.7805840  78.8661190   9.7986890  35.4405890  79.3436420  10.5553940
  35.0183160  78.4126310   9.4387990  39.9923610  79.9846780   3.8299440
  40.1136430  79.9433260   4.7785260  39.6072120  80.8470930   3.6746170
  43.9551980  77.7614180  11.8463130  43.9724720  78.2122830  12.6904980
  43.7067560  76.8619820  12.0596570  39.0045110  82.2947920   3.2282740
  38.4362010  81.8466170   2.6018650  39.7134110  82.6540700   2.6947890
  47.3822730  75.1746360  17.6849510  47.7068500  74.4436020  18.2107490
  47.4179240  74.8560000  16.7830500  34.0814290  86.1959940  17.1049470
  33.6969080  85.5553610  17.7032430  34.3926480  86.8996060  17.6744200
  40.2311430  83.0436480  12.5858090  40.5981560  82.5695050  13.3319430
  40.0416490  83.9178050  12.9266430  33.0951920  77.7880170   8.7151560
  32.8098840  77.4235840   9.5530180  33.0330780  77.0560630   8.1014700
  38.0210800  82.0845120  14.9042300  37.7167870  82.9637100  15.1292660
  38.9757260  82.1444910  14.9399740  36.5492590  86.2906110   5.5009150
  35.7754850  85.7503730   5.3407870  37.2787220  85.7712720   5.1626910
  47.3080570  85.2871470  11.2935540  48.0279690  85.7826760  10.9031650
  47.1062390  84.6089360  10.6489410  42.7690510  76.6809430   5.4364930
  41.9555120  76.1822600   5.3610240  42.5752460  77.5207680   5.0201280
  42.6899370  85.3580530  17.1804540  42.6236680  84.4376200  16.9262130
  42.0604510  85.4555970  17.8949180  45.4838900  81.0529080   3.7327090
  46.3718520  81.3646310   3.5578430  45.4543990  80.1801330   3.3407670
  36.5929990  85.9586490   9.1387960  37.1108660  85.1554750   9.0844850
  36.1414010  85.8965630   9.9804790  41.4799490  87.2252770   4.4115260
  41.8215190  87.9695000   3.9158580  40.6512200  87.5383890   4.7740090
  34.0774530  82.9247860  16.0513660  33.7189470  83.5901710  16.6387000
  33.7829090  82.0931410  16.4226280  37.2787650  83.3832100  18.9353210
  36.9787790  83.5289280  18.0381030  38.0498890  82.8237390  18.8426600
  42.6216100  88.1801100  16.9308340  42.6360640  87.2482060  16.7127250
  41.9141200  88.2660860  17.5698110  47.7553170  82.3640920   3.2006950
  47.6716890  82.7955140   2.3503390  48.4747360  82.8239270   3.6333770
  48.8327310  84.8208440  16.2776920  48.1075500  85.4137220  16.0806310
  49.3602770  84.8131980  15.4790290  48.7840420  89.2183180   5.9289080
  48.1416580  88.5638800   6.2032800  48.3971080  89.6238270   5.1529750
  44.3626900  86.5468610   9.7760770  44.7150720  85.9496740   9.1162140
  43.4789230  86.2212840   9.9469020  40.4490180  87.3066300   7.1831180
  41.1361310  87.8535510   7.5638770  39.6622600  87.8507030   7.2180790
  32.5882580  82.9239120   2.6748260  33.4577430  83.2063920   2.9584180
  32.0972900  83.7374990   2.5597070  39.7517390  84.3112330   6.7956540
  40.2080170  85.1217580   7.0216730  39.4005600  83.9935470   7.6275030
  42.0550000  89.8218670  14.0248840  42.6992220  90.0278050  14.7022260
  42.4179440  89.0607070  13.5719690  35.6529170  74.6549980   7.2679060
  35.5243800  74.6467880   8.2163980  34.8291190  74.9933070   6.9170070
  43.3282080  87.8251020  12.7426290  43.9704310  87.1244180  12.8558460
  43.8531430  88.6049460  12.5623180  47.1737800  88.1099640   2.4665430
  46.9475380  87.3930080   3.0590070  46.7834000  87.8612080   1.6287180
  45.1019700  88.6245920  15.9462350  45.4375940  89.2112610  16.6240270
  44.1820040  88.4938630  16.1760140  32.6523100  76.4141100  16.7285760
  31.9381620  76.6138020  17.3338370  33.0718140  75.6380670  17.1000560
  46.7554050  86.0271580   4.1279590  46.4675750  86.4884270   4.9157470
  47.5506220  85.5669350   4.3963810  40.9308280  88.6737250  19.1150410
  40.6105150  87.9546490  19.6596100  40.2566640  89.3492320  19.1886470
  38.9722450  89.5197700   4.0583560  38.9632550  90.2527390   3.4428070
  38.0520810  89.2729280   4.1510520  34.5729090  84.7412590   4.8030320
  33.9657040  85.4811490   4.8125620  35.0478440  84.8311950   3.9768520
  44.1461880  78.9063410  14.4787210  44.5142700  78.0858620  14.8066780
  43.2860080  78.9665300  14.8942860  47.5123910  77.8620350   5.2874770
  46.8837070  77.9666020   4.5733000  47.0175830  78.0817130   6.0768650
  41.9582050  89.5825940   2.7208750  42.0594030  89.3789930   1.7910730
  41.0583790  89.3284220   2.9256530  39.4807940  80.1406300   6.7032650
  38.7724090  80.6092640   7.1446260  39.7652420  79.4828310   7.3377840
  41.1063870  81.5603000  14.7025180  41.6049120  82.0348820  15.3677030
  41.2486820  80.6366520  14.9095210  43.5123370  76.8656960   8.1428440
  43.3891150  76.8843090   7.1937950  44.4607930  76.9135900   8.2626840
  37.6842960  78.4491380   4.0783360  38.5333490  78.8861530   4.0123550
  37.3174230  78.7611640   4.9055420  48.3130730  77.7770960  15.5453570
  47.8104330  78.5176360  15.8847380  49.1287390  78.1654960  15.2290360
  46.6052740  83.0204140   8.9914930  45.6642880  83.0354370   9.1662620
  46.9196810  82.2340100   9.4375230  36.5834380  84.7023740   2.5518890
  37.3497650  84.5905100   3.1144320  36.6609070  84.0061710   1.8995660
  35.2781140  82.1348810   3.2351780  35.3584730  81.1876320   3.3469180
  36.1700890  82.4655690   3.3412440  32.9641330  88.3517770   6.2127830
  32.0381110  88.5938910   6.2033240  33.4297760  89.1792030   6.0912580
  43.9218760  87.5770140  19.4747310  43.3156920  87.6001740  18.7343060
  43.6172870  86.8453180  20.0114560  32.8051940  83.9563730  18.4707950
  33.3090960  83.3771010  19.0424180  32.0659360  84.2403960  19.0084320
  39.8589880  85.3634720  18.0043470  39.0935550  85.9319720  17.9198140
  40.0405840  85.0710930  17.1111700  42.9478290  85.7397950   2.6296230
  42.3988390  86.1867250   3.2738970  43.5697550  85.2347200   3.1533900
  47.0013230  87.0940050  18.5618490  47.7422700  87.4315810  18.0585950
  46.2385910  87.2632110  18.0088260  34.8375020  82.0993320  19.3658020
  34.8780360  81.8007190  20.2743250  35.6920520  82.5000930  19.2065540
  38.6153410  84.6988870   4.5261530  39.0369830  84.5328740   5.3692920
  38.7404250  83.8889100   4.0316670  36.7780830  80.6785420  17.3332510
  36.2477290  80.1876370  16.7055850  37.4468900  81.1069620  16.7990440
  45.6758890  85.1454880  17.0973700  46.0899910  85.2999960  17.9464120
  44.7409890  85.2710100  17.2599480  46.1481060  82.4851040  19.1012850
  46.7301830  81.7303360  19.0133330  46.3242830  83.0158480  18.3244330
  37.2653130  77.6447790  17.4129800  37.1710000  77.0268540  16.6880670
  36.6850520  78.3714080  17.1859710  40.0314570  76.2021030  14.4457190
  39.5831870  76.2245290  13.6002740  39.3979770  75.8040050  15.0427490
  40.4374120  85.0975360  15.0669630  40.8562230  85.9408090  14.8945870
  39.5182750  85.2347400  14.8376410  42.7738020  82.8291540  16.4507470
  42.8934230  82.2332680  17.1902310  43.6332020  82.8661230  16.0308770
  45.1125920  83.3828730  15.0269980  44.5861140  83.9071350  14.4235120
  45.4557260  84.0156120  15.6579710  39.5406790  79.3712890  17.7083290
  40.1306480  79.0628740  18.3961110  38.7227030  78.8992640  17.8643190
  44.3600220  78.9878700  17.9416310  43.6715740  78.3260240  17.8766300
  45.0806240  78.5416970  18.3864770  44.9900620  75.5830330   4.0006570
  45.2702910  74.7398230   4.3565990  44.2166350  75.8153440   4.5145320
  39.5280040  76.8157340   2.4453770  39.1802040  76.1381330   1.8656220
  39.7292810  76.3546850   3.2597160  35.3325240  87.1765140   2.2927370
  35.7700110  87.7194810   2.9484950  35.8172970  86.3512090   2.3023710
  32.5471040  89.9654170   9.7447630  32.8774050  89.0975230   9.5126270
  32.9762040  90.1712690  10.5752590  37.1432960  88.2963180   7.4049600
  36.8428500  88.1728150   8.3053510  37.0370450  87.4371770   6.9965330
  48.6723430  90.3341760  16.7706570  48.0725420  90.3934320  16.0270490
  48.8017330  89.3946740  16.9003420  49.9124880  88.0759580   2.1076280
  49.0817840  88.1436230   2.5783510  50.0896710  88.9663700   1.8043140
  49.3681340  84.8207060   4.6110480  50.1300250  85.3903710   4.7170170
  49.3835710  84.2534260   5.3818790  32.8685680  83.3444990   8.8418140
  32.2134520  83.0756630   8.1977840  33.7063630  83.2349470   8.3920120
  50.3741310  85.6757160   9.4552410  50.7450140  84.8924480   9.0488380
  51.0143240  86.3646260   9.2769710  47.3575070  87.0593740  14.8682730
  46.5434910  87.4890900  15.1308520  47.7649270  87.6712150  14.2551780
  49.4200510  85.1141430   1.7683000  49.6949350  86.0220310   1.6402220
  49.2311250  85.0503960   2.7044990  45.8176120  78.1386280   3.0636630
  46.2361000  77.9517260   2.2233290  45.5112180  77.2865330   3.3739560
  49.3165850  83.0510420   6.7612430  48.9409450  82.2838350   6.3293720
  48.5868970  83.4333120   7.2487360  33.9061610  83.7297560  13.3821480
  34.2734650  83.6424960  14.2617500  33.3372430  82.9664110  13.2828340
  48.7065470  82.1981940  16.3951950  48.4751560  81.9694690  15.4949900
  48.9670020  83.1181490  16.3496840  33.4577610  80.6406650  17.2879900
  32.5633660  80.6073410  17.6273610  33.9975160  80.8393440  18.0531150
  47.1453540  77.4238370  19.1731650  48.0223720  77.4321770  19.5565650
  47.1574380  76.6869210  18.5624000  32.0823760  80.5543920   4.7843470
  31.1787840  80.8174120   4.6095130  32.5664380  80.8255090   4.0043430
  48.5916810  81.2767910  10.0619670  49.1154290  80.7830560   9.4309840
  49.1776230  81.4118270  10.8067240  48.7706530  81.3607780  13.5839220
  47.8209240  81.3271320  13.6984210  48.9519540  82.2707890  13.3488990
  34.6250970  79.6109460   2.6937850  35.3342670  79.1892680   2.2085130
  33.9090910  79.6784690   2.0621200  48.0816780  80.5341260   6.0012080
  48.5775900  80.3012130   6.7860960  47.8832850  79.6953100   5.5849720
  33.9617320  74.9154980  11.6363120  34.6093510  74.3652360  11.1958280
  34.3819160  75.1698130  12.4578930  49.5103940  79.1702210   8.5349760
  49.4003220  79.0158250   9.4732030  50.2711530  78.6423150   8.2925170
  47.8569660  75.1096340  14.9932760  48.4941880  75.7230480  15.3591950
  48.0044550  75.1457000  14.0481990  50.3994210  77.0010130   1.7755900
  51.3243520  76.8691310   1.5674190  50.3770000  77.0802950   2.7292350
  50.4732700  77.7720790   4.4012610  49.6784200  77.7065910   4.9305520
  50.6775980  78.7071430   4.3897960  33.7149320  75.0710650  14.3788440
  33.3664140  75.5274470  15.1446620  33.3837020  74.1767780  14.4610870
  35.3213690  88.2430250  18.5441630  35.2783320  87.8723160  19.4256090
  35.4524700  89.1807820  18.6843450  39.0219720  89.7989840  14.1451350
  38.7811080  90.0664400  13.2581870  39.9622360  89.9695570  14.2002210
  41.2274140  76.2622530  17.9007860  41.1663030  76.8544360  18.6503270
  42.1674520  76.1548490  17.7558120  43.8648700  75.9192590  17.5400150
  44.4789110  76.2371880  16.8781230  44.4098260  75.4341180  18.1596010
  34.3869960  74.5986850  17.6539210  34.9352950  74.4174900  16.8905320
  34.4525270  73.8080960  18.1895520  44.6056740  74.4824730  13.8669440
  43.7316580  74.8159840  13.6642370  44.4967490  74.0097910  14.6921310
  45.5128720  76.6895600  15.2511160  45.1842080  75.8747360  14.8712890
  46.4611020  76.6465410  15.1276850  34.7913950  88.5550880  14.6147450
  34.0648010  87.9356170  14.5473400  34.8523100  88.9491490  13.7445530
  42.3531560  75.3994570  12.8062350  41.5703350  75.8740070  13.0859110
  42.0594490  74.4949400  12.6975530  46.9052630  76.1017670  10.8511440
  47.3460720  76.0462770  10.0033040  46.6360220  77.0175680  10.9221620
  48.7691200  75.7332910   8.8620260  48.7079600  74.7894130   8.7151280
  49.5483230  75.8413000   9.4073720  33.6971970  75.7042050   5.3276070
  34.4551330  75.8170930   4.7540100  33.2349140  76.5411250   5.2819500
  40.2385780  77.8181320   8.3178380  39.4260290  77.4438210   7.9774260
  40.7427420  77.0626400   8.6199570  44.7410760  74.4823770   9.5561450
  45.3440130  75.0543980  10.0309970  44.0003750  75.0463210   9.3335350
  47.8845360  74.8845330   4.8301730  48.0795990  75.7828780   5.0969160
  47.0975230  74.6532410   5.3234680  36.0697120  76.2306100   3.8678040
  36.5989880  75.4435900   3.7385990  36.7025440  76.9097290   4.1013570
  38.2634960  75.9681240   6.9223430  37.6337700  75.2668550   7.0893560
  37.7240100  76.7285370   6.7056590  38.3890520  75.2465220  19.3575920
  38.1074790  75.7498820  18.5936740  38.7710220  74.4486970  18.9918050
  36.4414410  88.6305610   4.1489930  35.8123290  89.0990710   4.6975760
  36.5562240  87.7854830   4.5836120  44.9905980  74.6618800  19.9356390
  44.8771430  74.9813410  20.8307910  45.8075720  75.0631310  19.6393670
  43.8964130  63.9067780  65.3965090  43.8158180  62.9922390  65.1256800
  43.4828550  64.4034850  64.6904800  42.0282170  65.6846800  67.2774360
  41.2524270  65.2047240  67.5672930  42.6795100  65.0052450  67.1030520
  36.0448000  65.9966610  68.1550120  35.2132880  65.7415320  68.5546630
  36.6528980  66.0677380  68.8908040  46.0489600  70.0906990  66.0573490
  45.5871130  69.3194230  66.3860660  46.8615150  70.1173060  66.5625940
  36.0249260  70.0306700  68.3508140  36.3277300  69.1404440  68.1718360
  36.7692850  70.5876920  68.1230390  34.4539950  60.9568500  61.9392510
  33.5656650  61.2984470  61.8372390  34.7381140  60.7568820  61.0473340
  32.4172960  63.5574150  67.8232210  32.9889070  62.7896350  67.8235850
  32.4174500  63.8562910  66.9138820  42.2752910  72.3765000  65.6777480
  41.6564350  72.8322500  65.1071920  43.1304690  72.5316460  65.2767180
  41.4691160  68.3603990  67.2844520  41.3999440  67.4193930  67.1233650
  42.2311020  68.4505400  67.8567090  33.6597830  58.9658510  69.6101140
  33.4800670  58.0684260  69.8903900  33.2577910  59.5130380  70.2848090
  42.4996330  61.1674370  67.5113450  42.8761150  60.2946250  67.3987120
  42.4015840  61.5033070  66.6203890  36.6301340  59.5400000  62.9730890
  36.7368090  60.4403730  63.2799650  35.7193700  59.4917970  62.6825540
  46.2820450  58.6624810  64.4441790  47.1030070  58.1721380  64.4867270
  46.3154530  59.2522470  65.1973630  34.2784500  61.4619010  68.2183480
  34.9594610  61.7257380  68.8370880  33.9632550  60.6219880  68.5521490
  38.4709070  62.5086370  67.3056070  38.9787290  63.0067340  67.9461090
  39.0022310  61.7321570  67.1295430  50.5720000  60.6791560  71.0085420
  49.8672170  61.0673270  70.4900530  50.8377920  61.3741850  71.6106350
  36.7545170  57.1484930  71.5719490  36.7563610  57.6657320  70.7665390
  35.9249480  56.6715110  71.5489420  43.1416260  67.2604240  63.0709390
  42.5233530  67.7253690  62.5072110  43.6539510  67.9531720  63.4878900
  38.0048020  66.7880110  69.7492990  37.6717400  67.4149030  70.3914060
  38.1814700  67.3141990  68.9694660  46.5181930  60.6025190  67.2169330
  45.8137500  60.8910080  67.7972440  46.8794090  61.4125300  66.8568890
  36.4360500  58.8594890  69.5789940  36.7777310  59.7036940  69.2843810
  35.4976310  59.0078630  69.6955280  37.2167120  68.7560910  71.5642170
  37.8341120  69.4311990  71.2826620  36.3560240  69.1648890  71.4729670
  32.5099460  67.9460770  60.4449020  32.1327440  68.4347870  59.7133920
  32.7672530  68.6186050  61.0755550  48.1344710  70.2200320  69.4796810
  47.4508230  70.8899430  69.4713480  48.6739000  70.4180970  68.7141670
  49.5868850  60.0479980  67.6078540  48.6393760  60.0818960  67.7393970
  49.9118840  60.8618930  67.9927900  40.1188390  56.3477160  65.9034530
  40.4263370  55.7924050  65.1870030  39.1889090  56.4821620  65.7207520
  45.6703450  72.0644450  68.1941990  45.6830610  71.6606740  67.3264250
  45.1178670  72.8391740  68.0903420  46.9648870  68.7860670  63.2832160
  46.8545200  67.8435000  63.4081580  46.9617120  69.1476310  64.1694920
  45.0688890  66.9674290  69.5224600  45.4857680  66.7534400  68.6878060
  45.7928710  67.2247080  70.0933220  42.5069150  64.4125990  62.6394650
  41.5798430  64.3463370  62.8683120  42.6593970  65.3506120  62.5249890
  42.4938230  60.6842990  59.6361810  41.5541900  60.8456950  59.7214270
  42.8121490  61.4028670  59.0897800  49.0150990  65.3661510  69.6140840
  48.1869620  65.4354600  69.1390970  49.6101470  65.9515820  69.1456670
  46.5366440  65.9746290  63.1429900  45.9178860  65.6365840  62.4956200
  46.5190890  65.3306050  63.8509090  45.9793000  62.1530830  70.5595710
  45.5664180  62.9784540  70.8135700  45.2468950  61.5675870  70.3672070
  38.1125790  64.9390730  65.4214380  37.7082790  64.2267980  64.9260280
  38.1988910  64.5943970  66.3102420  38.5807490  68.6258290  67.5853590
  38.2835780  68.0203760  66.9061370  39.5307310  68.6635600  67.4742950
  36.8254410  61.7133940  69.2013420  37.3769000  61.8229280  68.4266670
  37.3397920  62.0871540  69.9168650  46.6693100  72.1990160  71.2476690
  46.1923660  73.0062350  71.0549300  45.9854890  71.5468490  71.4002900
  37.6725920  68.3639980  74.2361390  36.7754450  68.5879950  74.4834790
  37.6978790  68.4874920  73.2872790  44.7131140  65.2133100  60.1502650
  45.1524420  64.3755530  60.0040470  45.4259560  65.8462500  60.2366790
  36.4997140  65.2353300  72.8118760  36.3604910  66.1076100  73.1806160
  35.6178500  64.8926110  72.6666700  42.8226520  70.1529170  64.1183890
  43.2622430  70.8953500  63.7039280  42.7613410  70.3955740  65.0422850
  38.2977490  71.1775000  75.0203910  38.2692920  71.5817950  74.1532340
  38.1342460  70.2485360  74.8575510  48.2948280  56.4675910  58.4643690
  47.9820940  56.5602740  59.3642760  49.0560750  57.0456940  58.4141120
  34.8130420  63.8335710  62.9221030  34.6928020  64.5597800  62.3102300
  34.5031310  63.0638620  62.4448940  32.4515790  67.0050850  68.7289670
  32.5296210  67.1399620  67.7845390  33.0657470  66.2966740  68.9217790
  33.6963420  68.7051040  65.1395850  33.2891500  68.8465630  64.2849450
  34.5876430  68.4211200  64.9367060  49.6525560  69.1514950  73.4768090
  49.7788620  68.9126830  72.5585270  49.6946940  68.3199490  73.9490170
  43.5142300  72.8542950  72.0462900  44.0286970  72.7650960  72.8485330
  42.6711380  73.2002650  72.3390810  45.4896700  73.1398290  61.4746900
  45.3297840  72.8501230  62.3728730  45.3243410  72.3638420  60.9392130
  37.9685080  72.9196820  63.2518520  37.7927560  72.0032360  63.0386320
  37.1140820  73.2784110  63.4916320  45.1922830  70.6485850  60.0344900
  44.4987990  70.6463140  59.3747180  45.9345690  70.2245170  59.6039070
  44.7572760  72.2748560  64.1093390  45.2129710  71.4937940  64.4232010
  45.0965280  72.9855380  64.6534570  49.5049570  61.2047410  74.4417830
  48.8893840  61.7127080  73.9133290  49.1845990  60.3045740  74.3843770
  32.5075310  68.0465020  71.2684130  32.6706350  67.5770380  70.4503500
  32.9727760  67.5388580  71.9332970  37.2794080  57.1770780  66.3044700
  36.8362230  57.9580320  65.9729220  37.8379070  57.5000670  67.0115640
  41.5663890  60.0439300  71.9080020  41.1043260  60.2522320  72.7199960
  41.1642000  59.2298650  71.6050690  46.5668400  61.2648250  73.0376680
  45.7161990  60.9654000  73.3585750  46.4070190  61.5090260  72.1260500
  43.6618110  62.7650000  75.1375470  43.9871520  61.9313750  74.7977700
  44.4498440  63.2878520  75.2853800  40.3952900  56.7981480  61.1850530
  39.7707080  56.7941350  61.9103840  40.3083020  55.9312440  60.7886500
  39.3169980  57.7218110  68.1634300  39.6142310  58.6280940  68.0826320
  39.8655540  57.2336890  67.5493870  37.0708300  62.3004350  64.0325950
  36.8449220  62.0841520  64.9372570  36.2900830  62.7332810  63.6871920
  44.3006060  62.3067720  62.6316600  43.7014950  63.0303520  62.4480220
  44.8485670  62.2444500  61.8493050  39.5107510  63.1989930  74.6986220
  39.4151110  62.2584660  74.5486620  40.3539490  63.4205000  74.3034290
  42.9070930  60.9431260  64.6619880  43.3000500  61.2603460  63.8488570
  43.2687780  60.0643140  64.7764400  34.6418050  59.6103600  72.8520000
  34.2481440  60.4578810  73.0592780  33.9536450  58.9729970  73.0428640
  31.9435100  57.5332060  66.8850080  31.6548150  58.1034920  67.5975060
  32.6880860  57.0536510  67.2481310  32.1305330  61.4752180  58.0952800
  32.0480000  62.4182940  58.2367790  31.7788390  61.3327090  57.2165150
  43.4926070  63.5337010  68.7570660  42.7607190  64.0423820  69.1060760
  43.0950410  62.7166990  68.4559440  39.9303460  60.2091210  67.1623150
  39.9339520  59.7681160  66.3127690  40.8254580  60.5308540  67.2694970
  35.7805840  60.0917700  66.1217360  35.4405890  60.5692930  66.8784410
  35.0183160  59.6382820  65.7618460  39.9923610  61.2103290  60.1529910
  40.1136430  61.1689770  61.1015730  39.6072120  62.0727440  59.9976640
  43.9551980  58.9870690  68.1693600  43.9724720  59.4379340  69.0135450
  43.7067560  58.0876330  68.3827040  39.0045110  63.5204430  59.5513210
  38.4362010  63.0722680  58.9249120  39.7134110  63.8797210  59.0178360
  47.3822730  56.4002870  74.0079980  47.7068500  55.6692530  74.5337960
  47.4179240  56.0816510  73.1060970  34.0814290  67.4216450  73.4279940
  33.6969080  66.7810120  74.0262900  34.3926480  68.1252570  73.9974670
  40.2311430  64.2692990  68.9088560  40.5981560  63.7951560  69.6549900
  40.0416490  65.1434560  69.2496900  33.0951920  59.0136680  65.0382030
  32.8098840  58.6492350  65.8760650  33.0330780  58.2817140  64.4245170
  38.0210800  63.3101630  71.2272770  37.7167870  64.1893610  71.4523130
  38.9757260  63.3701420  71.2630210  36.5492590  67.5162620  61.8239620
  35.7754850  66.9760240  61.6638340  37.2787220  66.9969230  61.4857380
  47.3080570  66.5127980  67.6166010  48.0279690  67.0083270  67.2262120
  47.1062390  65.8345870  66.9719880  42.7690510  57.9065940  61.7595400
  41.9555120  57.4079110  61.6840710  42.5752460  58.7464190  61.3431750
  42.6899370  66.5837040  73.5035010  42.6236680  65.6632710  73.2492600
  42.0604510  66.6812480  74.2179650  45.4838900  62.2785590  60.0557560
  46.3718520  62.5902820  59.8808900  45.4543990  61.4057840  59.6638140
  36.5929990  67.1843000  65.4618430  37.1108660  66.3811260  65.4075320
  36.1414010  67.1222140  66.3035260  41.4799490  68.4509280  60.7345730
  41.8215190  69.1951510  60.2389050  40.6512200  68.7640400  61.0970560
  34.0774530  64.1504370  72.3744130  33.7189470  64.8158220  72.9617470
  33.7829090  63.3187920  72.7456750  37.2787650  64.6088610  75.2583680
  36.9787790  64.7545790  74.3611500  38.0498890  64.0493900  75.1657070
  42.6216100  69.4057610  73.2538810  42.6360640  68.4738570  73.0357720
  41.9141200  69.4917370  73.8928580  47.7553170  63.5897430  59.5237420
  47.6716890  64.0211650  58.6733860  48.4747360  64.0495780  59.9564240
  48.8327310  66.0464950  72.6007390  48.1075500  66.6393730  72.4036780
  49.3602770  66.0388490  71.8020760  48.7840420  70.4439690  62.2519550
  48.1416580  69.7895310  62.5263270  48.3971080  70.8494780  61.4760220
  44.3626900  67.7725120  66.0991240  44.7150720  67.1753250  65.4392610
  43.4789230  67.4469350  66.2699490  40.4490180  68.5322810  63.5061650
  41.1361310  69.0792020  63.8869240  39.6622600  69.0763540  63.5411260
  32.5882580  64.1495630  58.9978730  33.4577430  64.4320430  59.2814650
  32.0972900  64.9631500  58.8827540  39.7517390  65.5368840  63.1187010
  40.2080170  66.3474090  63.3447200  39.4005600  65.2191980  63.9505500
  42.0550000  71.0475180  70.3479310  42.6992220  71.2534560  71.0252730
  42.4179440  70.2863580  69.8950160  35.6529170  55.8806490  63.5909530
  35.5243800  55.8724390  64.5394450  34.8291190  56.2189580  63.2400540
  43.3282080  69.0507530  69.0656760  43.9704310  68.3500690  69.1788930
  43.8531430  69.8305970  68.8853650  47.1737800  69.3356150  58.7895900
  46.9475380  68.6186590  59.3820540  46.7834000  69.0868590  57.9517650
  45.1019700  69.8502430  72.2692820  45.4375940  70.4369120  72.9470740
  44.1820040  69.7195140  72.4990610  32.9553830  73.3623010  59.5640360
  33.3151470  73.9612350  58.9097630  32.8146170  73.9082900  60.3375390
  32.6523100  57.6397610  73.0516230  31.9381620  57.8394530  73.6568840
  33.0718140  56.8637180  73.4231030  46.7554050  67.2528090  60.4510060
  46.4675750  67.7140780  61.2387940  47.5506220  66.7925860  60.7194280
  32.9395690  71.6277870  74.0382760  33.0486810  70.6872610  73.8978150
  32.2876250  71.8932620  73.3896490  40.9308280  69.8993760  75.4380880
  40.6105150  69.1803000  75.9826570  40.2566640  70.5748830  75.5116940
  38.9722450  70.7454210  60.3814030  38.9632550  71.4783900  59.7658540
  38.0520810  70.4985790  60.4740990  34.5729090  65.9669100  61.1260790
  33.9657040  66.7068000  61.1356090  35.0478440  66.0568460  60.2998990
  44.1461880  60.1319920  70.8017680  44.5142700  59.3115130  71.1297250
  43.2860080  60.1921810  71.2173330  47.5123910  59.0876860  61.6105240
  46.8837070  59.1922530  60.8963470  47.0175830  59.3073640  62.3999120
  41.9582050  70.8082450  59.0439220  42.0594030  70.6046440  58.1141200
  41.0583790  70.5540730  59.2487000  39.4807940  61.3662810  63.0263120
  38.7724090  61.8349150  63.4676730  39.7652420  60.7084820  63.6608310
  41.1063870  62.7859510  71.0255650  41.6049120  63.2605330  71.6907500
  41.2486820  61.8623030  71.2325680  43.5123370  58.0913470  64.4658910
  43.3891150  58.1099600  63.5168420  44.4607930  58.1392410  64.5857310
  40.6000160  73.3268770  63.7386890  40.8541660  73.2890160  62.8166260
  39.6512640  73.2002100  63.7315140  37.6842960  59.6747890  60.4013830
  38.5333490  60.1118040  60.3354020  37.3174230  59.9868150  61.2285890
  48.3130730  59.0027470  71.8684040  47.8104330  59.7432870  72.2077850
  49.1287390  59.3911470  71.5520830  46.6052740  64.2460650  65.3145400
  45.6642880  64.2610880  65.4893090  46.9196810  63.4596610  65.7605700
  36.5834380  65.9280250  58.8749360  37.3497650  65.8161610  59.4374790
  36.6609070  65.2318220  58.2226130  35.2781140  63.3605320  59.5582250
  35.3584730  62.4132830  59.6699650  36.1700890  63.6912200  59.6642910
  48.6078320  71.4169500  66.9899660  48.7325740  72.2400670  67.4623470
  49.4743880  71.2060230  66.6423810  36.0795850  73.5100710  66.6616790
  36.8158330  72.9616170  66.9325360  36.4636770  74.3756720  66.5222780
  32.9641330  69.5774280  62.5358300  32.0381110  69.8195420  62.5263710
  33.4297760  70.4048540  62.4143050  39.1898160  72.6831020  58.4842360
  39.9826770  72.9719850  58.0324150  38.6702510  72.2523190  57.8054840
  45.3519130  72.5306940  74.4087190  46.3040880  72.4464960  74.3587430
  45.2047350  73.1948650  75.0820980  48.2428330  71.9101150  59.9079100
  47.9569840  71.4966290  59.0933280  48.0447880  72.8388860  59.7879620
  32.8051940  65.1820240  74.7938420  33.3090960  64.6027520  75.3654650
  32.0659360  65.4660470  75.3314790  39.7075560  67.9034430  58.3484710
  39.6026200  67.2886780  59.0746090  39.5399780  67.3800320  57.5647720
  39.8589880  66.5891230  74.3273940  39.0935550  67.1576230  74.2428610
  40.0405840  66.2967440  73.4342170  42.9478290  66.9654460  58.9526700
  42.3988390  67.4123760  59.5969440  43.5697550  66.4603710  59.4764370
  47.0013230  68.3196560  74.8848960  47.7422700  68.6572320  74.3816420
  46.2385910  68.4888620  74.3318730  38.6153410  65.9245380  60.8492000
  39.0369830  65.7585250  61.6923390  38.7404250  65.1145610  60.3547140
  36.7780830  61.9041930  73.6562980  36.2477290  61.4132880  73.0286320
  37.4468900  62.3326130  73.1220910  41.1281050  64.9482990  58.0969100
  41.6486710  64.2332010  57.7310250  41.7749450  65.5868860  58.3969610
  45.6758890  66.3711390  73.4204170  46.0899910  66.5256470  74.2694590
  44.7409890  66.4966610  73.5829950  46.1481060  63.7107550  75.4243320
  46.7301830  62.9559870  75.3363800  46.3242830  64.2414990  74.6474800
  37.2653130  58.8704300  73.7360270  37.1710000  58.2525050  73.0111140
  36.6850520  59.5970590  73.5090180  40.0314570  57.4277540  70.7687660
  39.5831870  57.4501800  69.9233210  39.3979770  57.0296560  71.3657960
  40.4374120  66.3231870  71.3900100  40.8562230  67.1664600  71.2176340
  39.5182750  66.4603910  71.1606880  42.7738020  64.0548050  72.7737940
  42.8934230  63.4589190  73.5132780  43.6332020  64.0917740  72.3539240
  45.1125920  64.6085240  71.3500450  44.5861140  65.1327860  70.7465590
  45.4557260  65.2412630  71.9810180  37.5112310  61.9978610  57.7950160
  37.3101370  61.1345970  58.1563500  37.3404360  61.9111970  56.8571760
  38.2881540  72.6284880  72.5057830  37.7502630  73.3530940  72.1866530
  38.5415500  72.1515220  71.7155170  39.5406790  60.5969400  74.0313760
  40.1306480  60.2885250  74.7191580  38.7227030  60.1249150  74.1873660
  44.3600220  60.2135210  74.2646780  43.6715740  59.5516750  74.1996770
  45.0806240  59.7673480  74.7095240  44.9900620  56.8086840  60.3237040
  45.2702910  55.9654740  60.6796460  44.2166350  57.0409950  60.8375790
  36.3095110  59.0979230  57.7828040  36.6121010  59.1046660  56.8747190
  37.0489700  58.7477090  58.2795700  41.1443750  73.8636090  72.7644480
  41.0702450  74.7671230  73.0716850  40.2422590  73.5447990  72.7366550
  39.5280040  58.0413850  58.7684240  39.1802040  57.3637840  58.1886690
  39.7292810  57.5803360  59.5827630  41.6929080  73.0294600  60.3870840
  42.5879870  73.3679570  60.4089600  41.7246710  72.3074010  59.7595120
  35.3325240  68.4021650  58.6157840  35.7700110  68.9451320  59.2715420
  35.8172970  67.5768600  58.6254180  32.5471040  71.1910680  66.0678100
  32.8774050  70.3231740  65.8356740  32.9762040  71.3969200  66.8983060
  37.1432960  69.5219690  63.7280070  36.8428500  69.3984660  64.6283980
  37.0370450  68.6628280  63.3195800  33.0361250  72.0581270  68.8059730
  32.5992240  72.2382070  69.6383880  33.6038930  72.8155890  68.6641450
  48.6723430  71.5598270  73.0937040  48.0725420  71.6190830  72.3500960
  48.8017330  70.6203250  73.2233890  49.9124880  69.3016090  58.4306750
  49.0817840  69.3692740  58.9013980  50.0896710  70.1920210  58.1273610
  49.3681340  66.0463570  60.9340950  50.1300250  66.6160220  61.0400640
  49.3835710  65.4790770  61.7049260  32.8685680  64.5701500  65.1648610
  32.2134520  64.3013140  64.5208310  33.7063630  64.4605980  64.7150590
  50.3741310  66.9013670  65.7782880  50.7450140  66.1180990  65.3718850
  51.0143240  67.5902770  65.6000180  47.3575070  68.2850250  71.1913200
  46.5434910  68.7147410  71.4538990  47.7649270  68.8968660  70.5782250
  49.4200510  66.3397940  58.0913470  49.6949350  67.2476820  57.9632690
  49.2311250  66.2760470  59.0275460  45.8176120  59.3642790  59.3867100
  46.2361000  59.1773770  58.5463760  45.5112180  58.5121840  59.6970030
  49.3165850  64.2766930  63.0842900  48.9409450  63.5094860  62.6524190
  48.5868970  64.6589630  63.5717830  33.9061610  64.9554070  69.7051950
  34.2734650  64.8681470  70.5847970  33.3372430  64.1920620  69.6058810
  48.7065470  63.4238450  72.7182420  48.4751560  63.1951200  71.8180370
  48.9670020  64.3438000  72.6727310  33.4577610  61.8663160  73.6110370
  32.5633660  61.8329920  73.9504080  33.9975160  62.0649950  74.3761620
  47.1453540  58.6494880  75.4962120  48.0223720  58.6578280  75.8796120
  47.1574380  57.9125720  74.8854470  32.0823760  61.7800430  61.1073940
  31.1787840  62.0430630  60.9325600  32.5664380  62.0511600  60.3273900
  48.5916810  62.5024420  66.3850140  49.1154290  62.0087070  65.7540310
  49.1776230  62.6374780  67.1297710  48.7706530  62.5864290  69.9069690
  47.8209240  62.5527830  70.0214680  48.9519540  63.4964400  69.6719460
  34.6250970  60.8365970  59.0168320  35.3342670  60.4149190  58.5315600
  33.9090910  60.9041200  58.3851670  34.2725130  56.8905300  58.0570970
  34.9953260  57.4314240  58.3752190  34.5449650  56.6168720  57.1812510
  48.0816780  61.7597770  62.3242550  48.5775900  61.5268640  63.1091430
  47.8832850  60.9209610  61.9080190  33.9617320  56.1411490  67.9593590
  34.6093510  55.5908870  67.5188750  34.3819160  56.3954640  68.7809400
  49.5103940  60.3958720  64.8580230  49.4003220  60.2414760  65.7962500
  50.2711530  59.8679660  64.6155640  47.8569660  56.3352850  71.3163230
  48.4941880  56.9486990  71.6822420  48.0044550  56.3713510  70.3712460
  50.3994210  58.2266640  58.0986370  51.3243520  58.0947820  57.8904660
  50.3770000  58.3059460  59.0522820  50.4732700  58.9977300  60.7243080
  49.6784200  58.9322420  61.2535990  50.6775980  59.9327940  60.7128430
  47.4151120  73.0368850  64.7181470  48.0110190  72.7153420  64.0415890
  47.6729270  72.5640670  65.5094740  33.7149320  56.2967160  70.7018910
  33.3664140  56.7530980  71.4677090  33.3837020  55.4024290  70.7841340
  35.3213690  69.4686760  74.8672100  35.2783320  69.0979670  75.7486560
  35.4524700  70.4064330  75.0073920  39.0219720  71.0246350  70.4681820
  38.7811080  71.2920910  69.5812340  39.9622360  71.1952080  70.5232680
  41.2274140  57.4879040  74.2238330  41.1663030  58.0800870  74.9733740
  42.1674520  57.3805000  74.0788590  43.8648700  57.1449100  73.8630620
  44.4789110  57.4628390  73.2011700  44.4098260  56.6597690  74.4826480
  50.2823880  73.0440730  71.2692460  49.7882160  73.4409600  70.5519590
  49.6737170  72.4189940  71.6629740  34.3869960  55.8243360  73.9769680
  34.9352950  55.6431410  73.2135790  34.4525270  55.0337470  74.5125990
  35.1601720  72.4149010  71.9869880  34.5662040  72.2833710  72.7259920
  35.1525560  71.5787150  71.5211980  44.6056740  55.7081240  70.1899910
  43.7316580  56.0416350  69.9872840  44.4967490  55.2354420  71.0151780
  45.5128720  57.9152110  71.5741630  45.1842080  57.1003870  71.1943360
  46.4611020  57.8721920  71.4507320  47.9663330  73.6864150  68.5479200
  47.5066300  74.4379960  68.1737220  47.3375790  72.9670620  68.4894000
  34.7913950  69.7807390  70.9377920  34.0648010  69.1612680  70.8703870
  34.8523100  70.1748000  70.0676000  38.3959050  71.9952390  67.7227330
  38.9124070  71.3839750  67.1975590  39.0456430  72.4981170  68.2138340
  41.1354550  72.8860880  68.5496310  41.4232360  72.6315180  67.6729320
  41.6477770  72.3338240  69.1401880  42.3531560  56.6251080  69.1292820
  41.5703350  57.0996580  69.4089580  42.0594490  55.7205910  69.0206000
  46.9052630  57.3274180  67.1741910  47.3460720  57.2719280  66.3263510
  46.6360220  58.2432190  67.2452090  48.7691200  56.9589420  65.1850730
  48.7079600  56.0150640  65.0381750  49.5483230  57.0669510  65.7304190
  33.0743950  73.0981780  64.1474680  32.9065990  72.4652460  64.8456570
  32.2078460  73.3041180  63.7968870  33.6971970  56.9298560  61.6506540
  34.4551330  57.0427440  61.0770570  33.2349140  57.7667760  61.6049970
  40.2385780  59.0437830  64.6408850  39.4260290  58.6694720  64.3004730
  40.7427420  58.2882910  64.9430040  44.7410760  55.7080280  65.8791920
  45.3440130  56.2800490  66.3540440  44.0003750  56.2719720  65.6565820
  47.8845360  56.1101840  61.1532200  48.0795990  57.0085290  61.4199630
  47.0975230  55.8788920  61.6465150  34.6806650  71.7915010  61.5924820
  34.1554270  72.1723040  60.8886780  34.6051230  72.4165780  62.3134530
  36.0697120  57.4562610  60.1908510  36.5989880  56.6692410  60.0616460
  36.7025440  58.1353800  60.4244040  38.2634960  57.1937750  63.2453900
  37.6337700  56.4925060  63.4124030  37.7240100  57.9541880  63.0287060
  41.2026910  73.8076980  75.9164510  42.1294220  73.5721250  75.9600470
  41.1877340  74.6348980  75.4350540  49.4371970  73.3502550  62.9138760
  49.6124160  72.6640290  62.2699680  48.7393540  73.8749600  62.5215430
  38.3890520  56.4721730  75.6806390  38.1074790  56.9755330  74.9167210
  38.7710220  55.6743480  75.3148520  37.2799620  73.7397390  60.4674070
  38.0118440  73.4556670  59.9197960  37.5393290  73.5010670  61.3573450
  36.4414410  69.8562120  60.4720400  35.8123290  70.3247220  61.0206230
  36.5562240  69.0111340  60.9066590  43.8964130  63.9067780  46.6221600
  43.8158180  62.9922390  46.3513310  43.4828550  64.4034850  45.9161310
  42.0282170  65.6846800  48.5030870  41.2524270  65.2047240  48.7929440
  42.6795100  65.0052450  48.3287030  36.0448000  65.9966610  49.3806630
  35.2132880  65.7415320  49.7803140  36.6528980  66.0677380  50.1164550
  46.0489600  70.0906990  47.2830000  45.5871130  69.3194230  47.6117170
  46.8615150  70.1173060  47.7882450  36.0249260  70.0306700  49.5764650
  36.3277300  69.1404440  49.3974870  36.7692850  70.5876920  49.3486900
  32.4172960  63.5574150  49.0488720  32.9889070  62.7896350  49.0492360
  32.4174500  63.8562910  48.1395330  42.2752910  72.3765000  46.9033990
  41.6564350  72.8322500  46.3328430  43.1304690  72.5316460  46.5023690
  41.4691160  68.3603990  48.5101030  41.3999440  67.4193930  48.3490160
  42.2311020  68.4505400  49.0823600  42.4996330  61.1674370  48.7369960
  42.8761150  60.2946250  48.6243630  42.4015840  61.5033070  47.8460400
  46.2820450  58.6624810  45.6698300  47.1030070  58.1721380  45.7123780
  46.3154530  59.2522470  46.4230140  38.4709070  62.5086370  48.5312580
  38.9787290  63.0067340  49.1717600  39.0022310  61.7321570  48.3551940
  50.5720000  60.6791560  52.2341930  49.8672170  61.0673270  51.7157040
  50.8377920  61.3741850  52.8362860  36.7545170  57.1484930  52.7976000
  36.7563610  57.6657320  51.9921900  35.9249480  56.6715110  52.7745930
  43.1416260  67.2604240  44.2965900  42.5233530  67.7253690  43.7328620
  43.6539510  67.9531720  44.7135410  38.0048020  66.7880110  50.9749500
  37.6717400  67.4149030  51.6170570  38.1814700  67.3141990  50.1951170
  46.5181930  60.6025190  48.4425840  45.8137500  60.8910080  49.0228950
  46.8794090  61.4125300  48.0825400  36.4360500  58.8594890  50.8046450
  36.7777310  59.7036940  50.5100320  35.4976310  59.0078630  50.9211790
  37.2167120  68.7560910  52.7898680  37.8341120  69.4311990  52.5083130
  36.3560240  69.1648890  52.6986180  32.5099460  67.9460770  41.6705530
  32.1327440  68.4347870  40.9390430  32.7672530  68.6186050  42.3012060
  48.1344710  70.2200320  50.7053320  47.4508230  70.8899430  50.6969990
  48.6739000  70.4180970  49.9398180  49.5868850  60.0479980  48.8335050
  48.6393760  60.0818960  48.9650480  49.9118840  60.8618930  49.2184410
  40.1188390  56.3477160  47.1291040  40.4263370  55.7924050  46.4126540
  39.1889090  56.4821620  46.9464030  45.6703450  72.0644450  49.4198500
  45.6830610  71.6606740  48.5520760  45.1178670  72.8391740  49.3159930
  46.9648870  68.7860670  44.5088670  46.8545200  67.8435000  44.6338090
  46.9617120  69.1476310  45.3951430  45.0688890  66.9674290  50.7481110
  45.4857680  66.7534400  49.9134570  45.7928710  67.2247080  51.3189730
  42.5069150  64.4125990  43.8651160  41.5798430  64.3463370  44.0939630
  42.6593970  65.3506120  43.7506400  42.4938230  60.6842990  40.8618320
  41.5541900  60.8456950  40.9470780  42.8121490  61.4028670  40.3154310
  49.0150990  65.3661510  50.8397350  48.1869620  65.4354600  50.3647480
  49.6101470  65.9515820  50.3713180  46.5366440  65.9746290  44.3686410
  45.9178860  65.6365840  43.7212710  46.5190890  65.3306050  45.0765600
  45.9793000  62.1530830  51.7852220  45.5664180  62.9784540  52.0392210
  45.2468950  61.5675870  51.5928580  38.1125790  64.9390730  46.6470890
  37.7082790  64.2267980  46.1516790  38.1988910  64.5943970  47.5358930
  38.5807490  68.6258290  48.8110100  38.2835780  68.0203760  48.1317880
  39.5307310  68.6635600  48.6999460  36.8254410  61.7133940  50.4269930
  37.3769000  61.8229280  49.6523180  37.3397920  62.0871540  51.1425160
  46.6693100  72.1990160  52.4733200  46.1923660  73.0062350  52.2805810
  45.9854890  71.5468490  52.6259410  37.6725920  68.3639980  55.4617900
  36.7754450  68.5879950  55.7091300  37.6978790  68.4874920  54.5129300
  44.7131140  65.2133100  41.3759160  45.1524420  64.3755530  41.2296980
  45.4259560  65.8462500  41.4623300  36.4997140  65.2353300  54.0375270
  36.3604910  66.1076100  54.4062670  35.6178500  64.8926110  53.8923210
  42.8226520  70.1529170  45.3440400  43.2622430  70.8953500  44.9295790
  42.7613410  70.3955740  46.2679360  38.2977490  71.1775000  56.2460420
  38.2692920  71.5817950  55.3788850  38.1342460  70.2485360  56.0832020
  50.2492310  71.9602100  57.5424590  50.7252030  72.4384990  58.2213670
  50.8699470  71.8919590  56.8170090  32.4515790  67.0050850  49.9546180
  32.5296210  67.1399620  49.0101900  33.0657470  66.2966740  50.1474300
  33.6963420  68.7051040  46.3652360  33.2891500  68.8465630  45.5105960
  34.5876430  68.4211200  46.1623570  49.6525560  69.1514950  54.7024600
  49.7788620  68.9126830  53.7841780  49.6946940  68.3199490  55.1746680
  43.5142300  72.8542950  53.2719410  44.0286970  72.7650960  54.0741840
  42.6711380  73.2002650  53.5647320  45.4896700  73.1398290  42.7003410
  45.3297840  72.8501230  43.5985240  45.3243410  72.3638420  42.1648640
  37.9685080  72.9196820  44.4775030  37.7927560  72.0032360  44.2642830
  37.1140820  73.2784110  44.7172830  45.1922830  70.6485850  41.2601410
  44.4987990  70.6463140  40.6003690  45.9345690  70.2245170  40.8295580
  44.7572760  72.2748560  45.3349900  45.2129710  71.4937940  45.6488520
  45.0965280  72.9855380  45.8791080  49.5049570  61.2047410  55.6674340
  48.8893840  61.7127080  55.1389800  49.1845990  60.3045740  55.6100280
  32.5075310  68.0465020  52.4940640  32.6706350  67.5770380  51.6760010
  32.9727760  67.5388580  53.1589480  37.2794080  57.1770780  47.5301210
  36.8362230  57.9580320  47.1985730  37.8379070  57.5000670  48.2372150
  41.5663890  60.0439300  53.1336530  41.1043260  60.2522320  53.9456470
  41.1642000  59.2298650  52.8307200  46.5668400  61.2648250  54.2633190
  45.7161990  60.9654000  54.5842260  46.4070190  61.5090260  53.3517010
  43.6618110  62.7650000  56.3631980  43.9871520  61.9313750  56.0234210
  44.4498440  63.2878520  56.5110310  39.3169980  57.7218110  49.3890810
  39.6142310  58.6280940  49.3082830  39.8655540  57.2336890  48.7750380
  44.3006060  62.3067720  43.8573110  43.7014950  63.0303520  43.6736730
  44.8485670  62.2444500  43.0749560  39.5107510  63.1989930  55.9242730
  39.4151110  62.2584660  55.7743130  40.3539490  63.4205000  55.5290800
  42.9070930  60.9431260  45.8876390  43.3000500  61.2603460  45.0745080
  43.2687780  60.0643140  46.0020910  34.6418050  59.6103600  54.0776510
  34.2481440  60.4578810  54.2849290  33.9536450  58.9729970  54.2685150
  41.2163100  59.6938570  57.1473250  40.5261420  59.5010770  57.7819340
  41.9595400  59.9773210  57.6797550  31.9435100  57.5332060  48.1106590
  31.6548150  58.1034920  48.8231570  32.6880860  57.0536510  48.4737820
  43.4926070  63.5337010  49.9827170  42.7607190  64.0423820  50.3317270
  43.0950410  62.7166990  49.6815950  39.9303460  60.2091210  48.3879660
  39.9339520  59.7681160  47.5384200  40.8254580  60.5308540  48.4951480
  43.9551980  58.9870690  49.3950110  43.9724720  59.4379340  50.2391960
  43.7067560  58.0876330  49.6083550  47.3822730  56.4002870  55.2336490
  47.7068500  55.6692530  55.7594470  47.4179240  56.0816510  54.3317480
  34.0814290  67.4216450  54.6536450  33.6969080  66.7810120  55.2519410
  34.3926480  68.1252570  55.2231180  40.2311430  64.2692990  50.1345070
  40.5981560  63.7951560  50.8806410  40.0416490  65.1434560  50.4753410
  38.0210800  63.3101630  52.4529280  37.7167870  64.1893610  52.6779640
  38.9757260  63.3701420  52.4886720  36.5492590  67.5162620  43.0496130
  35.7754850  66.9760240  42.8894850  37.2787220  66.9969230  42.7113890
  47.3080570  66.5127980  48.8422520  48.0279690  67.0083270  48.4518630
  47.1062390  65.8345870  48.1976390  42.7690510  57.9065940  42.9851910
  41.9555120  57.4079110  42.9097220  42.5752460  58.7464190  42.5688260
  42.6899370  66.5837040  54.7291520  42.6236680  65.6632710  54.4749110
  42.0604510  66.6812480  55.4436160  45.4838900  62.2785590  41.2814070
  46.3718520  62.5902820  41.1065410  45.4543990  61.4057840  40.8894650
  36.5929990  67.1843000  46.6874940  37.1108660  66.3811260  46.6331830
  36.1414010  67.1222140  47.5291770  41.4799490  68.4509280  41.9602240
  41.8215190  69.1951510  41.4645560  40.6512200  68.7640400  42.3227070
  34.0774530  64.1504370  53.6000640  33.7189470  64.8158220  54.1873980
  33.7829090  63.3187920  53.9713260  37.2787650  64.6088610  56.4840190
  36.9787790  64.7545790  55.5868010  38.0498890  64.0493900  56.3913580
  42.6216100  69.4057610  54.4795320  42.6360640  68.4738570  54.2614230
  41.9141200  69.4917370  55.1185090  47.7553170  63.5897430  40.7493930
  47.6716890  64.0211650  39.8990370  48.4747360  64.0495780  41.1820750
  48.8327310  66.0464950  53.8263900  48.1075500  66.6393730  53.6293290
  49.3602770  66.0388490  53.0277270  48.7840420  70.4439690  43.4776060
  48.1416580  69.7895310  43.7519780  48.3971080  70.8494780  42.7016730
  44.3626900  67.7725120  47.3247750  44.7150720  67.1753250  46.6649120
  43.4789230  67.4469350  47.4956000  40.4490180  68.5322810  44.7318160
  41.1361310  69.0792020  45.1125750  39.6622600  69.0763540  44.7667770
  39.7517390  65.5368840  44.3443520  40.2080170  66.3474090  44.5703710
  39.4005600  65.2191980  45.1762010  42.0550000  71.0475180  51.5735820
  42.6992220  71.2534560  52.2509240  42.4179440  70.2863580  51.1206670
  43.3282080  69.0507530  50.2913270  43.9704310  68.3500690  50.4045440
  43.8531430  69.8305970  50.1110160  47.1737800  69.3356150  40.0152410
  46.9475380  68.6186590  40.6077050  46.7834000  69.0868590  39.1774160
  45.1019700  69.8502430  53.4949330  45.4375940  70.4369120  54.1727250
  44.1820040  69.7195140  53.7247120  32.9553830  73.3623010  40.7896870
  33.3151470  73.9612350  40.1354140  32.8146170  73.9082900  41.5631900
  32.6523100  57.6397610  54.2772740  31.9381620  57.8394530  54.8825350
  33.0718140  56.8637180  54.6487540  46.7554050  67.2528090  41.6766570
  46.4675750  67.7140780  42.4644450  47.5506220  66.7925860  41.9450790
  32.9395690  71.6277870  55.2639270  33.0486810  70.6872610  55.1234660
  32.2876250  71.8932620  54.6153000  40.9308280  69.8993760  56.6637390
  40.6105150  69.1803000  57.2083080  40.2566640  70.5748830  56.7373450
  38.9722450  70.7454210  41.6070540  38.9632550  71.4783900  40.9915050
  38.0520810  70.4985790  41.6997500  44.1461880  60.1319920  52.0274190
  44.5142700  59.3115130  52.3553760  43.2860080  60.1921810  52.4429840
  41.9582050  70.8082450  40.2695730  42.0594030  70.6046440  39.3397710
  41.0583790  70.5540730  40.4743510  41.1063870  62.7859510  52.2512160
  41.6049120  63.2605330  52.9164010  41.2486820  61.8623030  52.4582190
  43.5123370  58.0913470  45.6915420  43.3891150  58.1099600  44.7424930
  44.4607930  58.1392410  45.8113820  40.6000160  73.3268770  44.9643400
  40.8541660  73.2890160  44.0422770  39.6512640  73.2002100  44.9571650
  48.3130730  59.0027470  53.0940550  47.8104330  59.7432870  53.4334360
  49.1287390  59.3911470  52.7777340  46.6052740  64.2460650  46.5401910
  45.6642880  64.2610880  46.7149600  46.9196810  63.4596610  46.9862210
  48.6078320  71.4169500  48.2156170  48.7325740  72.2400670  48.6879980
  49.4743880  71.2060230  47.8680320  36.0795850  73.5100710  47.8873300
  36.8158330  72.9616170  48.1581870  36.4636770  74.3756720  47.7479290
  32.9641330  69.5774280  43.7614810  32.0381110  69.8195420  43.7520220
  33.4297760  70.4048540  43.6399560  35.0854130  72.6946780  57.0758880
  35.8866860  73.0158830  57.4894280  34.5705950  72.3342360  57.7978790
  39.1898160  72.6831020  39.7098870  39.9826770  72.9719850  39.2580660
  38.6702510  72.2523190  39.0311350  43.9218760  68.8026650  57.0234290
  43.3156920  68.8258250  56.2830040  43.6172870  68.0709690  57.5601540
  45.3519130  72.5306940  55.6343700  46.3040880  72.4464960  55.5843940
  45.2047350  73.1948650  56.3077490  48.2428330  71.9101150  41.1335610
  47.9569840  71.4966290  40.3189790  48.0447880  72.8388860  41.0136130
  32.8051940  65.1820240  56.0194930  33.3090960  64.6027520  56.5911160
  32.0659360  65.4660470  56.5571300  39.7075560  67.9034430  39.5741220
  39.6026200  67.2886780  40.3002600  39.5399780  67.3800320  38.7904230
  39.8589880  66.5891230  55.5530450  39.0935550  67.1576230  55.4685120
  40.0405840  66.2967440  54.6598680  42.9478290  66.9654460  40.1783210
  42.3988390  67.4123760  40.8225950  43.5697550  66.4603710  40.7020880
  47.0013230  68.3196560  56.1105470  47.7422700  68.6572320  55.6072930
  46.2385910  68.4888620  55.5575240  34.8375020  63.3249830  56.9145000
  34.8780360  63.0263700  57.8230230  35.6920520  63.7257440  56.7552520
  38.6153410  65.9245380  42.0748510  39.0369830  65.7585250  42.9179900
  38.7404250  65.1145610  41.5803650  36.7780830  61.9041930  54.8819490
  36.2477290  61.4132880  54.2542830  37.4468900  62.3326130  54.3477420
  41.1281050  64.9482990  39.3225610  41.6486710  64.2332010  38.9566760
  41.7749450  65.5868860  39.6226120  45.6758890  66.3711390  54.6460680
  46.0899910  66.5256470  55.4951100  44.7409890  66.4966610  54.8086460
  46.1481060  63.7107550  56.6499830  46.7301830  62.9559870  56.5620310
  46.3242830  64.2414990  55.8731310  37.2653130  58.8704300  54.9616780
  37.1710000  58.2525050  54.2367650  36.6850520  59.5970590  54.7346690
  40.0314570  57.4277540  51.9944170  39.5831870  57.4501800  51.1489720
  39.3979770  57.0296560  52.5914470  40.4374120  66.3231870  52.6156610
  40.8562230  67.1664600  52.4432850  39.5182750  66.4603910  52.3863390
  42.7738020  64.0548050  53.9994450  42.8934230  63.4589190  54.7389290
  43.6332020  64.0917740  53.5795750  45.1125920  64.6085240  52.5756960
  44.5861140  65.1327860  51.9722100  45.4557260  65.2412630  53.2066690
  38.2881540  72.6284880  53.7314340  37.7502630  73.3530940  53.4123040
  38.5415500  72.1515220  52.9411680  39.5406790  60.5969400  55.2570270
  40.1306480  60.2885250  55.9448090  38.7227030  60.1249150  55.4130170
  44.3600220  60.2135210  55.4903290  43.6715740  59.5516750  55.4253280
  45.0806240  59.7673480  55.9351750  44.9900620  56.8086840  41.5493550
  45.2702910  55.9654740  41.9052970  44.2166350  57.0409950  42.0632300
  41.1443750  73.8636090  53.9900990  41.0702450  74.7671230  54.2973360
  40.2422590  73.5447990  53.9623060  41.6929080  73.0294600  41.6127350
  42.5879870  73.3679570  41.6346110  41.7246710  72.3074010  40.9851630
  35.3325240  68.4021650  39.8414350  35.7700110  68.9451320  40.4971930
  35.8172970  67.5768600  39.8510690  32.5471040  71.1910680  47.2934610
  32.8774050  70.3231740  47.0613250  32.9762040  71.3969200  48.1239570
  37.1432960  69.5219690  44.9536580  36.8428500  69.3984660  45.8540490
  37.0370450  68.6628280  44.5452310  33.0361250  72.0581270  50.0316240
  32.5992240  72.2382070  50.8640390  33.6038930  72.8155890  49.8897960
  48.6723430  71.5598270  54.3193550  48.0725420  71.6190830  53.5757470
  48.8017330  70.6203250  54.4490400  49.9124880  69.3016090  39.6563260
  49.0817840  69.3692740  40.1270490  50.0896710  70.1920210  39.3530120
  49.3681340  66.0463570  42.1597460  50.1300250  66.6160220  42.2657150
  49.3835710  65.4790770  42.9305770  32.8685680  64.5701500  46.3905120
  32.2134520  64.3013140  45.7464820  33.7063630  64.4605980  45.9407100
  50.3741310  66.9013670  47.0039390  50.7450140  66.1180990  46.5975360
  51.0143240  67.5902770  46.8256690  47.3575070  68.2850250  52.4169710
  46.5434910  68.7147410  52.6795500  47.7649270  68.8968660  51.8038760
  49.4200510  66.3397940  39.3169980  49.6949350  67.2476820  39.1889200
  49.2311250  66.2760470  40.2531970  45.8176120  59.3642790  40.6123610
  46.2361000  59.1773770  39.7720270  45.5112180  58.5121840  40.9226540
  49.3165850  64.2766930  44.3099410  48.9409450  63.5094860  43.8780700
  48.5868970  64.6589630  44.7974340  33.9061610  64.9554070  50.9308460
  34.2734650  64.8681470  51.8104480  33.3372430  64.1920620  50.8315320
  48.7065470  63.4238450  53.9438930  48.4751560  63.1951200  53.0436880
  48.9670020  64.3438000  53.8983820  33.4577610  61.8663160  54.8366880
  32.5633660  61.8329920  55.1760590  33.9975160  62.0649950  55.6018130
  47.1453540  58.6494880  56.7218630  48.0223720  58.6578280  57.1052630
  47.1574380  57.9125720  56.1110980  48.5916810  62.5024420  47.6106650
  49.1154290  62.0087070  46.9796820  49.1776230  62.6374780  48.3554220
  48.7706530  62.5864290  51.1326200  47.8209240  62.5527830  51.2471190
  48.9519540  63.4964400  50.8975970  33.9617320  56.1411490  49.1850100
  34.6093510  55.5908870  48.7445260  34.3819160  56.3954640  50.0065910
  47.8569660  56.3352850  52.5419740  48.4941880  56.9486990  52.9078930
  48.0044550  56.3713510  51.5968970  47.4151120  73.0368850  45.9437980
  48.0110190  72.7153420  45.2672400  47.6729270  72.5640670  46.7351250
  33.7149320  56.2967160  51.9275420  33.3664140  56.7530980  52.6933600
  33.3837020  55.4024290  52.0097850  35.3213690  69.4686760  56.0928610
  35.2783320  69.0979670  56.9743070  35.4524700  70.4064330  56.2330430
  39.0219720  71.0246350  51.6938330  38.7811080  71.2920910  50.8068850
  39.9622360  71.1952080  51.7489190  41.2274140  57.4879040  55.4494840
  41.1663030  58.0800870  56.1990250  42.1674520  57.3805000  55.3045100
  43.8648700  57.1449100  55.0887130  44.4789110  57.4628390  54.4268210
  44.4098260  56.6597690  55.7082990  50.2823880  73.0440730  52.4948970
  49.7882160  73.4409600  51.7776100  49.6737170  72.4189940  52.8886250
  34.3869960  55.8243360  55.2026190  34.9352950  55.6431410  54.4392300
  34.4525270  55.0337470  55.7382500  35.1601720  72.4149010  53.2126390
  34.5662040  72.2833710  53.9516430  35.1525560  71.5787150  52.7468490
  44.6056740  55.7081240  51.4156420  43.7316580  56.0416350  51.2129350
  44.4967490  55.2354420  52.2408290  45.5128720  57.9152110  52.7998140
  45.1842080  57.1003870  52.4199870  46.4611020  57.8721920  52.6763830
  47.9663330  73.6864150  49.7735710  47.5066300  74.4379960  49.3993730
  47.3375790  72.9670620  49.7150510  34.7913950  69.7807390  52.1634430
  34.0648010  69.1612680  52.0960380  34.8523100  70.1748000  51.2932510
  38.3959050  71.9952390  48.9483840  38.9124070  71.3839750  48.4232100
  39.0456430  72.4981170  49.4394850  41.1354550  72.8860880  49.7752820
  41.4232360  72.6315180  48.8985830  41.6477770  72.3338240  50.3658390
  42.3531560  56.6251080  50.3549330  41.5703350  57.0996580  50.6346090
  42.0594490  55.7205910  50.2462510  46.9052630  57.3274180  48.3998420
  47.3460720  57.2719280  47.5520020  46.6360220  58.2432190  48.4708600
  33.0743950  73.0981780  45.3731190  32.9065990  72.4652460  46.0713080
  32.2078460  73.3041180  45.0225380  44.7410760  55.7080280  47.1048430
  45.3440130  56.2800490  47.5796950  44.0003750  56.2719720  46.8822330
  34.6806650  71.7915010  42.8181330  34.1554270  72.1723040  42.1143290
  34.6051230  72.4165780  43.5391040  41.2026910  73.8076980  57.1421020
  42.1294220  73.5721250  57.1856980  41.1877340  74.6348980  56.6607050
  49.4371970  73.3502550  44.1395270  49.6124160  72.6640290  43.4956190
  48.7393540  73.8749600  43.7471940  38.3890520  56.4721730  56.9062900
  38.1074790  56.9755330  56.1423720  38.7710220  55.6743480  56.5405030
  37.2799620  73.7397390  41.6930580  38.0118440  73.4556670  41.1454470
  37.5393290  73.5010670  42.5829960  36.4414410  69.8562120  41.6976910
  35.8123290  70.3247220  42.2462740  36.5562240  69.0111340  42.1323100
  44.9905980  55.8875310  57.4843370  44.8771430  56.2069920  58.3794890
  45.8075720  56.2887820  57.1880650  47.7704470  73.0346840  56.9662060
  48.5629790  72.5396070  56.7588020  48.0637620  73.7136980  57.5737670
  43.8964130  63.9067780  27.8478110  43.8158180  62.9922390  27.5769820
  43.4828550  64.4034850  27.1417820  42.0282170  65.6846800  29.7287380
  41.2524270  65.2047240  30.0185950  42.6795100  65.0052450  29.5543540
  36.0448000  65.9966610  30.6063140  35.2132880  65.7415320  31.0059650
  36.6528980  66.0677380  31.3421060  46.0489600  70.0906990  28.5086510
  45.5871130  69.3194230  28.8373680  46.8615150  70.1173060  29.0138960
  36.0249260  70.0306700  30.8021160  36.3277300  69.1404440  30.6231380
  36.7692850  70.5876920  30.5743410  34.4539950  60.9568500  24.3905530
  33.5656650  61.2984470  24.2885410  34.7381140  60.7568820  23.4986360
  32.4172960  63.5574150  30.2745230  32.9889070  62.7896350  30.2748870
  32.4174500  63.8562910  29.3651840  42.2752910  72.3765000  28.1290500
  41.6564350  72.8322500  27.5584940  43.1304690  72.5316460  27.7280200
  41.4691160  68.3603990  29.7357540  41.3999440  67.4193930  29.5746670
  42.2311020  68.4505400  30.3080110  33.6597830  58.9658510  32.0614160
  33.4800670  58.0684260  32.3416920  33.2577910  59.5130380  32.7361110
  42.4996330  61.1674370  29.9626470  42.8761150  60.2946250  29.8500140
  42.4015840  61.5033070  29.0716910  36.6301340  59.5400000  25.4243910
  36.7368090  60.4403730  25.7312670  35.7193700  59.4917970  25.1338560
  46.2820450  58.6624810  26.8954810  47.1030070  58.1721380  26.9380290
  46.3154530  59.2522470  27.6486650  34.2784500  61.4619010  30.6696500
  34.9594610  61.7257380  31.2883900  33.9632550  60.6219880  31.0034510
  38.4709070  62.5086370  29.7569090  38.9787290  63.0067340  30.3974110
  39.0022310  61.7321570  29.5808450  50.5720000  60.6791560  33.4598440
  49.8672170  61.0673270  32.9413550  50.8377920  61.3741850  34.0619370
  43.1416260  67.2604240  25.5222410  42.5233530  67.7253690  24.9585130
  43.6539510  67.9531720  25.9391920  38.0048020  66.7880110  32.2006010
  37.6717400  67.4149030  32.8427080  38.1814700  67.3141990  31.4207680
  46.5181930  60.6025190  29.6682350  45.8137500  60.8910080  30.2485460
  46.8794090  61.4125300  29.3081910  36.4360500  58.8594890  32.0302960
  36.7777310  59.7036940  31.7356830  35.4976310  59.0078630  32.1468300
  37.2167120  68.7560910  34.0155190  37.8341120  69.4311990  33.7339640
  36.3560240  69.1648890  33.9242690  32.5099460  67.9460770  22.8962040
  32.1327440  68.4347870  22.1646940  32.7672530  68.6186050  23.5268570
  48.1344710  70.2200320  31.9309830  47.4508230  70.8899430  31.9226500
  48.6739000  70.4180970  31.1654690  49.5868850  60.0479980  30.0591560
  48.6393760  60.0818960  30.1906990  49.9118840  60.8618930  30.4440920
  45.6703450  72.0644450  30.6455010  45.6830610  71.6606740  29.7777270
  45.1178670  72.8391740  30.5416440  46.9648870  68.7860670  25.7345180
  46.8545200  67.8435000  25.8594600  46.9617120  69.1476310  26.6207940
  45.0688890  66.9674290  31.9737620  45.4857680  66.7534400  31.1391080
  45.7928710  67.2247080  32.5446240  42.5069150  64.4125990  25.0907670
  41.5798430  64.3463370  25.3196140  42.6593970  65.3506120  24.9762910
  42.4938230  60.6842990  22.0874830  41.5541900  60.8456950  22.1727290
  42.8121490  61.4028670  21.5410820  49.0150990  65.3661510  32.0653860
  48.1869620  65.4354600  31.5903990  49.6101470  65.9515820  31.5969690
  46.5366440  65.9746290  25.5942920  45.9178860  65.6365840  24.9469220
  46.5190890  65.3306050  26.3022110  45.9793000  62.1530830  33.0108730
  45.5664180  62.9784540  33.2648720  45.2468950  61.5675870  32.8185090
  38.1125790  64.9390730  27.8727400  37.7082790  64.2267980  27.3773300
  38.1988910  64.5943970  28.7615440  38.5807490  68.6258290  30.0366610
  38.2835780  68.0203760  29.3574390  39.5307310  68.6635600  29.9255970
  36.8254410  61.7133940  31.6526440  37.3769000  61.8229280  30.8779690
  37.3397920  62.0871540  32.3681670  46.6693100  72.1990160  33.6989710
  46.1923660  73.0062350  33.5062320  45.9854890  71.5468490  33.8515920
  37.6725920  68.3639980  36.6874410  36.7754450  68.5879950  36.9347810
  37.6978790  68.4874920  35.7385810  44.7131140  65.2133100  22.6015670
  45.1524420  64.3755530  22.4553490  45.4259560  65.8462500  22.6879810
  36.4997140  65.2353300  35.2631780  36.3604910  66.1076100  35.6319180
  35.6178500  64.8926110  35.1179720  42.8226520  70.1529170  26.5696910
  43.2622430  70.8953500  26.1552300  42.7613410  70.3955740  27.4935870
  38.2977490  71.1775000  37.4716930  38.2692920  71.5817950  36.6045360
  38.1342460  70.2485360  37.3088530  48.2948280  56.4675910  20.9156710
  47.9820940  56.5602740  21.8155780  49.0560750  57.0456940  20.8654140
  34.8130420  63.8335710  25.3734050  34.6928020  64.5597800  24.7615320
  34.5031310  63.0638620  24.8961960  50.2492310  71.9602100  38.7681100
  50.7252030  72.4384990  39.4470180  50.8699470  71.8919590  38.0426600
  32.4515790  67.0050850  31.1802690  32.5296210  67.1399620  30.2358410
  33.0657470  66.2966740  31.3730810  33.6963420  68.7051040  27.5908870
  33.2891500  68.8465630  26.7362470  34.5876430  68.4211200  27.3880080
  49.6525560  69.1514950  35.9281110  49.7788620  68.9126830  35.0098290
  49.6946940  68.3199490  36.4003190  43.5142300  72.8542950  34.4975920
  44.0286970  72.7650960  35.2998350  42.6711380  73.2002650  34.7903830
  45.4896700  73.1398290  23.9259920  45.3297840  72.8501230  24.8241750
  45.3243410  72.3638420  23.3905150  37.9685080  72.9196820  25.7031540
  37.7927560  72.0032360  25.4899340  37.1140820  73.2784110  25.9429340
  45.1922830  70.6485850  22.4857920  44.4987990  70.6463140  21.8260200
  45.9345690  70.2245170  22.0552090  44.7572760  72.2748560  26.5606410
  45.2129710  71.4937940  26.8745030  45.0965280  72.9855380  27.1047590
  49.5049570  61.2047410  36.8930850  48.8893840  61.7127080  36.3646310
  49.1845990  60.3045740  36.8356790  32.5075310  68.0465020  33.7197150
  32.6706350  67.5770380  32.9016520  32.9727760  67.5388580  34.3845990
  37.2794080  57.1770780  28.7557720  36.8362230  57.9580320  28.4242240
  37.8379070  57.5000670  29.4628660  46.5668400  61.2648250  35.4889700
  45.7161990  60.9654000  35.8098770  46.4070190  61.5090260  34.5773520
  43.6618110  62.7650000  37.5888490  43.9871520  61.9313750  37.2490720
  44.4498440  63.2878520  37.7366820  40.3952900  56.7981480  23.6363550
  39.7707080  56.7941350  24.3616860  40.3083020  55.9312440  23.2399520
  37.0708300  62.3004350  26.4838970  36.8449220  62.0841520  27.3885590
  36.2900830  62.7332810  26.1384940  44.3006060  62.3067720  25.0829620
  43.7014950  63.0303520  24.8993240  44.8485670  62.2444500  24.3006070
  39.5107510  63.1989930  37.1499240  39.4151110  62.2584660  36.9999640
  40.3539490  63.4205000  36.7547310  42.9070930  60.9431260  27.1132900
  43.3000500  61.2603460  26.3001590  43.2687780  60.0643140  27.2277420
  31.9435100  57.5332060  29.3363100  31.6548150  58.1034920  30.0488080
  32.6880860  57.0536510  29.6994330  32.1305330  61.4752180  20.5465820
  32.0480000  62.4182940  20.6880810  31.7788390  61.3327090  19.6678170
  43.4926070  63.5337010  31.2083680  42.7607190  64.0423820  31.5573780
  43.0950410  62.7166990  30.9072460  39.9303460  60.2091210  29.6136170
  39.9339520  59.7681160  28.7640710  40.8254580  60.5308540  29.7207990
  35.7805840  60.0917700  28.5730380  35.4405890  60.5692930  29.3297430
  35.0183160  59.6382820  28.2131480  39.9923610  61.2103290  22.6042930
  40.1136430  61.1689770  23.5528750  39.6072120  62.0727440  22.4489660
  43.9551980  58.9870690  30.6206620  43.9724720  59.4379340  31.4648470
  43.7067560  58.0876330  30.8340060  39.0045110  63.5204430  22.0026230
  38.4362010  63.0722680  21.3762140  39.7134110  63.8797210  21.4691380
  34.0814290  67.4216450  35.8792960  33.6969080  66.7810120  36.4775920
  34.3926480  68.1252570  36.4487690  40.2311430  64.2692990  31.3601580
  40.5981560  63.7951560  32.1062920  40.0416490  65.1434560  31.7009920
  33.0951920  59.0136680  27.4895050  32.8098840  58.6492350  28.3273670
  33.0330780  58.2817140  26.8758190  38.0210800  63.3101630  33.6785790
  37.7167870  64.1893610  33.9036150  38.9757260  63.3701420  33.7143230
  36.5492590  67.5162620  24.2752640  35.7754850  66.9760240  24.1151360
  37.2787220  66.9969230  23.9370400  47.3080570  66.5127980  30.0679030
  48.0279690  67.0083270  29.6775140  47.1062390  65.8345870  29.4232900
  42.7690510  57.9065940  24.2108420  41.9555120  57.4079110  24.1353730
  42.5752460  58.7464190  23.7944770  42.6899370  66.5837040  35.9548030
  42.6236680  65.6632710  35.7005620  42.0604510  66.6812480  36.6692670
  45.4838900  62.2785590  22.5070580  46.3718520  62.5902820  22.3321920
  45.4543990  61.4057840  22.1151160  36.5929990  67.1843000  27.9131450
  37.1108660  66.3811260  27.8588340  36.1414010  67.1222140  28.7548280
  41.4799490  68.4509280  23.1858750  41.8215190  69.1951510  22.6902070
  40.6512200  68.7640400  23.5483580  34.0774530  64.1504370  34.8257150
  33.7189470  64.8158220  35.4130490  33.7829090  63.3187920  35.1969770
  37.2787650  64.6088610  37.7096700  36.9787790  64.7545790  36.8124520
  38.0498890  64.0493900  37.6170090  42.6216100  69.4057610  35.7051830
  42.6360640  68.4738570  35.4870740  41.9141200  69.4917370  36.3441600
  47.7553170  63.5897430  21.9750440  47.6716890  64.0211650  21.1246880
  48.4747360  64.0495780  22.4077260  48.8327310  66.0464950  35.0520410
  48.1075500  66.6393730  34.8549800  49.3602770  66.0388490  34.2533780
  48.7840420  70.4439690  24.7032570  48.1416580  69.7895310  24.9776290
  48.3971080  70.8494780  23.9273240  44.3626900  67.7725120  28.5504260
  44.7150720  67.1753250  27.8905630  43.4789230  67.4469350  28.7212510
  40.4490180  68.5322810  25.9574670  41.1361310  69.0792020  26.3382260
  39.6622600  69.0763540  25.9924280  32.5882580  64.1495630  21.4491750
  33.4577430  64.4320430  21.7327670  32.0972900  64.9631500  21.3340560
  39.7517390  65.5368840  25.5700030  40.2080170  66.3474090  25.7960220
  39.4005600  65.2191980  26.4018520  42.0550000  71.0475180  32.7992330
  42.6992220  71.2534560  33.4765750  42.4179440  70.2863580  32.3463180
  35.6529170  55.8806490  26.0422550  35.5243800  55.8724390  26.9907470
  34.8291190  56.2189580  25.6913560  43.3282080  69.0507530  31.5169780
  43.9704310  68.3500690  31.6301950  43.8531430  69.8305970  31.3366670
  47.1737800  69.3356150  21.2408920  46.9475380  68.6186590  21.8333560
  46.7834000  69.0868590  20.4030670  45.1019700  69.8502430  34.7205840
  45.4375940  70.4369120  35.3983760  44.1820040  69.7195140  34.9503630
  32.9553830  73.3623010  22.0153380  33.3151470  73.9612350  21.3610650
  32.8146170  73.9082900  22.7888410  46.7554050  67.2528090  22.9023080
  46.4675750  67.7140780  23.6900960  47.5506220  66.7925860  23.1707300
  32.9395690  71.6277870  36.4895780  33.0486810  70.6872610  36.3491170
  32.2876250  71.8932620  35.8409510  40.9308280  69.8993760  37.8893900
  40.6105150  69.1803000  38.4339590  40.2566640  70.5748830  37.9629960
  38.9722450  70.7454210  22.8327050  38.9632550  71.4783900  22.2171560
  38.0520810  70.4985790  22.9254010  34.5729090  65.9669100  23.5773810
  33.9657040  66.7068000  23.5869110  35.0478440  66.0568460  22.7512010
  47.5123910  59.0876860  24.0618260  46.8837070  59.1922530  23.3476490
  47.0175830  59.3073640  24.8512140  41.9582050  70.8082450  21.4952240
  42.0594030  70.6046440  20.5654220  41.0583790  70.5540730  21.7000020
  39.4807940  61.3662810  25.4776140  38.7724090  61.8349150  25.9189750
  39.7652420  60.7084820  26.1121330  41.1063870  62.7859510  33.4768670
  41.6049120  63.2605330  34.1420520  41.2486820  61.8623030  33.6838700
  43.5123370  58.0913470  26.9171930  43.3891150  58.1099600  25.9681440
  44.4607930  58.1392410  27.0370330  40.6000160  73.3268770  26.1899910
  40.8541660  73.2890160  25.2679280  39.6512640  73.2002100  26.1828160
  37.6842960  59.6747890  22.8526850  38.5333490  60.1118040  22.7867040
  37.3174230  59.9868150  23.6798910  48.3130730  59.0027470  34.3197060
  47.8104330  59.7432870  34.6590870  49.1287390  59.3911470  34.0033850
  46.6052740  64.2460650  27.7658420  45.6642880  64.2610880  27.9406110
  46.9196810  63.4596610  28.2118720  36.5834380  65.9280250  21.3262380
  37.3497650  65.8161610  21.8887810  36.6609070  65.2318220  20.6739150
  35.2781140  63.3605320  22.0095270  35.3584730  62.4132830  22.1212670
  36.1700890  63.6912200  22.1155930  48.6078320  71.4169500  29.4412680
  48.7325740  72.2400670  29.9136490  49.4743880  71.2060230  29.0936830
  36.0795850  73.5100710  29.1129810  36.8158330  72.9616170  29.3838380
  36.4636770  74.3756720  28.9735800  32.9641330  69.5774280  24.9871320
  32.0381110  69.8195420  24.9776730  33.4297760  70.4048540  24.8656070
  35.0854130  72.6946780  38.3015390  35.8866860  73.0158830  38.7150790
  34.5705950  72.3342360  39.0235300  39.1898160  72.6831020  20.9355380
  39.9826770  72.9719850  20.4837170  38.6702510  72.2523190  20.2567860
  43.9218760  68.8026650  38.2490800  43.3156920  68.8258250  37.5086550
  43.6172870  68.0709690  38.7858050  45.3519130  72.5306940  36.8600210
  46.3040880  72.4464960  36.8100450  45.2047350  73.1948650  37.5334000
  48.2428330  71.9101150  22.3592120  47.9569840  71.4966290  21.5446300
  48.0447880  72.8388860  22.2392640  32.8051940  65.1820240  37.2451440
  33.3090960  64.6027520  37.8167670  32.0659360  65.4660470  37.7827810
  39.7075560  67.9034430  20.7997730  39.6026200  67.2886780  21.5259110
  39.5399780  67.3800320  20.0160740  39.8589880  66.5891230  36.7786960
  39.0935550  67.1576230  36.6941630  40.0405840  66.2967440  35.8855190
  42.9478290  66.9654460  21.4039720  42.3988390  67.4123760  22.0482460
  43.5697550  66.4603710  21.9277390  47.0013230  68.3196560  37.3361980
  47.7422700  68.6572320  36.8329440  46.2385910  68.4888620  36.7831750
  38.6153410  65.9245380  23.3005020  39.0369830  65.7585250  24.1436410
  38.7404250  65.1145610  22.8060160  41.1281050  64.9482990  20.5482120
  41.6486710  64.2332010  20.1823270  41.7749450  65.5868860  20.8482630
  45.6758890  66.3711390  35.8717190  46.0899910  66.5256470  36.7207610
  44.7409890  66.4966610  36.0342970  46.1481060  63.7107550  37.8756340
  46.7301830  62.9559870  37.7876820  46.3242830  64.2414990  37.0987820
  40.4374120  66.3231870  33.8413120  40.8562230  67.1664600  33.6689360
  39.5182750  66.4603910  33.6119900  42.7738020  64.0548050  35.2250960
  42.8934230  63.4589190  35.9645800  43.6332020  64.0917740  34.8052260
  45.1125920  64.6085240  33.8013470  44.5861140  65.1327860  33.1978610
  45.4557260  65.2412630  34.4323200  37.5112310  61.9978610  20.2463180
  37.3101370  61.1345970  20.6076520  37.3404360  61.9111970  19.3084780
  38.2881540  72.6284880  34.9570850  37.7502630  73.3530940  34.6379550
  38.5415500  72.1515220  34.1668190  44.3600220  60.2135210  36.7159800
  43.6715740  59.5516750  36.6509790  45.0806240  59.7673480  37.1608260
  44.9900620  56.8086840  22.7750060  45.2702910  55.9654740  23.1309480
  44.2166350  57.0409950  23.2888810  36.3095110  59.0979230  20.2341060
  36.6121010  59.1046660  19.3260210  37.0489700  58.7477090  20.7308720
  41.1443750  73.8636090  35.2157500  41.0702450  74.7671230  35.5229870
  40.2422590  73.5447990  35.1879570  39.5280040  58.0413850  21.2197260
  39.1802040  57.3637840  20.6399710  39.7292810  57.5803360  22.0340650
  41.6929080  73.0294600  22.8383860  42.5879870  73.3679570  22.8602620
  41.7246710  72.3074010  22.2108140  35.3325240  68.4021650  21.0670860
  35.7700110  68.9451320  21.7228440  35.8172970  67.5768600  21.0767200
  32.5471040  71.1910680  28.5191120  32.8774050  70.3231740  28.2869760
  32.9762040  71.3969200  29.3496080  37.1432960  69.5219690  26.1793090
  36.8428500  69.3984660  27.0797000  37.0370450  68.6628280  25.7708820
  33.0361250  72.0581270  31.2572750  32.5992240  72.2382070  32.0896900
  33.6038930  72.8155890  31.1154470  48.6723430  71.5598270  35.5450060
  48.0725420  71.6190830  34.8013980  48.8017330  70.6203250  35.6746910
  49.9124880  69.3016090  20.8819770  49.0817840  69.3692740  21.3527000
  50.0896710  70.1920210  20.5786630  49.3681340  66.0463570  23.3853970
  50.1300250  66.6160220  23.4913660  49.3835710  65.4790770  24.1562280
  32.8685680  64.5701500  27.6161630  32.2134520  64.3013140  26.9721330
  33.7063630  64.4605980  27.1663610  50.3741310  66.9013670  28.2295900
  50.7450140  66.1180990  27.8231870  51.0143240  67.5902770  28.0513200
  47.3575070  68.2850250  33.6426220  46.5434910  68.7147410  33.9052010
  47.7649270  68.8968660  33.0295270  49.4200510  66.3397940  20.5426490
  49.6949350  67.2476820  20.4145710  49.2311250  66.2760470  21.4788480
  45.8176120  59.3642790  21.8380120  46.2361000  59.1773770  20.9976780
  45.5112180  58.5121840  22.1483050  49.3165850  64.2766930  25.5355920
  48.9409450  63.5094860  25.1037210  48.5868970  64.6589630  26.0230850
  33.9061610  64.9554070  32.1564970  34.2734650  64.8681470  33.0360990
  33.3372430  64.1920620  32.0571830  48.7065470  63.4238450  35.1695440
  48.4751560  63.1951200  34.2693390  48.9670020  64.3438000  35.1240330
  47.1453540  58.6494880  37.9475140  48.0223720  58.6578280  38.3309140
  47.1574380  57.9125720  37.3367490  32.0823760  61.7800430  23.5586960
  31.1787840  62.0430630  23.3838620  32.5664380  62.0511600  22.7786920
  48.5916810  62.5024420  28.8363160  49.1154290  62.0087070  28.2053330
  49.1776230  62.6374780  29.5810730  48.7706530  62.5864290  32.3582710
  47.8209240  62.5527830  32.4727700  48.9519540  63.4964400  32.1232480
  34.6250970  60.8365970  21.4681340  35.3342670  60.4149190  20.9828620
  33.9090910  60.9041200  20.8364690  34.2725130  56.8905300  20.5083990
  34.9953260  57.4314240  20.8265210  34.5449650  56.6168720  19.6325530
  48.0816780  61.7597770  24.7755570  48.5775900  61.5268640  25.5604450
  47.8832850  60.9209610  24.3593210  49.5103940  60.3958720  27.3093250
  49.4003220  60.2414760  28.2475520  50.2711530  59.8679660  27.0668660
  47.8569660  56.3352850  33.7676250  48.4941880  56.9486990  34.1335440
  48.0044550  56.3713510  32.8225480  50.3994210  58.2266640  20.5499390
  51.3243520  58.0947820  20.3417680  50.3770000  58.3059460  21.5035840
  50.4732700  58.9977300  23.1756100  49.6784200  58.9322420  23.7049010
  50.6775980  59.9327940  23.1641450  47.4151120  73.0368850  27.1694490
  48.0110190  72.7153420  26.4928910  47.6729270  72.5640670  27.9607760
  35.3213690  69.4686760  37.3185120  35.2783320  69.0979670  38.1999580
  35.4524700  70.4064330  37.4586940  39.0219720  71.0246350  32.9194840
  38.7811080  71.2920910  32.0325360  39.9622360  71.1952080  32.9745700
  50.2823880  73.0440730  33.7205480  49.7882160  73.4409600  33.0032610
  49.6737170  72.4189940  34.1142760  35.1601720  72.4149010  34.4382900
  34.5662040  72.2833710  35.1772940  35.1525560  71.5787150  33.9725000
  44.6056740  55.7081240  32.6412930  43.7316580  56.0416350  32.4385860
  44.4967490  55.2354420  33.4664800  47.9663330  73.6864150  30.9992220
  47.5066300  74.4379960  30.6250240  47.3375790  72.9670620  30.9407020
  34.7913950  69.7807390  33.3890940  34.0648010  69.1612680  33.3216890
  34.8523100  70.1748000  32.5189020  38.3959050  71.9952390  30.1740350
  38.9124070  71.3839750  29.6488610  39.0456430  72.4981170  30.6651360
  41.1354550  72.8860880  31.0009330  41.4232360  72.6315180  30.1242340
  41.6477770  72.3338240  31.5914900  46.9052630  57.3274180  29.6254930
  47.3460720  57.2719280  28.7776530  46.6360220  58.2432190  29.6965110
  48.7691200  56.9589420  27.6363750  48.7079600  56.0150640  27.4894770
  49.5483230  57.0669510  28.1817210  33.0743950  73.0981780  26.5987700
  32.9065990  72.4652460  27.2969590  32.2078460  73.3041180  26.2481890
  33.6971970  56.9298560  24.1019560  34.4551330  57.0427440  23.5283590
  33.2349140  57.7667760  24.0562990  40.2385780  59.0437830  27.0921870
  39.4260290  58.6694720  26.7517750  40.7427420  58.2882910  27.3943060
  44.7410760  55.7080280  28.3304940  45.3440130  56.2800490  28.8053460
  44.0003750  56.2719720  28.1078840  47.8845360  56.1101840  23.6045220
  48.0795990  57.0085290  23.8712650  47.0975230  55.8788920  24.0978170
  34.6806650  71.7915010  24.0437840  34.1554270  72.1723040  23.3399800
  34.6051230  72.4165780  24.7647550  36.0697120  57.4562610  22.6421530
  36.5989880  56.6692410  22.5129480  36.7025440  58.1353800  22.8757060
  38.2634960  57.1937750  25.6966920  37.6337700  56.4925060  25.8637050
  37.7240100  57.9541880  25.4800080  41.2026910  73.8076980  38.3677530
  42.1294220  73.5721250  38.4113490  41.1877340  74.6348980  37.8863560
  49.4371970  73.3502550  25.3651780  49.6124160  72.6640290  24.7212700
  48.7393540  73.8749600  24.9728450  37.2799620  73.7397390  22.9187090
  38.0118440  73.4556670  22.3710980  37.5393290  73.5010670  23.8086470
  36.4414410  69.8562120  22.9233420  35.8123290  70.3247220  23.4719250
  36.5562240  69.0111340  23.3579610  47.7704470  73.0346840  38.1918570
  48.5629790  72.5396070  37.9844530  48.0637620  73.7136980  38.7994180
  43.8964130  63.9067780   9.0734620  43.8158180  62.9922390   8.8026330
  43.4828550  64.4034850   8.3674330  42.0282170  65.6846800  10.9543890
  41.2524270  65.2047240  11.2442460  42.6795100  65.0052450  10.7800050
  36.0448000  65.9966610  11.8319650  35.2132880  65.7415320  12.2316160
  36.6528980  66.0677380  12.5677570  46.0489600  70.0906990   9.7343020
  45.5871130  69.3194230  10.0630190  46.8615150  70.1173060  10.2395470
  36.0249260  70.0306700  12.0277670  36.3277300  69.1404440  11.8487890
  36.7692850  70.5876920  11.7999920  34.4539950  60.9568500   5.6162040
  33.5656650  61.2984470   5.5141920  34.7381140  60.7568820   4.7242870
  32.4172960  63.5574150  11.5001740  32.9889070  62.7896350  11.5005380
  32.4174500  63.8562910  10.5908350  42.2752910  72.3765000   9.3547010
  41.6564350  72.8322500   8.7841450  43.1304690  72.5316460   8.9536710
  41.4691160  68.3603990  10.9614050  41.3999440  67.4193930  10.8003180
  42.2311020  68.4505400  11.5336620  33.6597830  58.9658510  13.2870670
  33.4800670  58.0684260  13.5673430  33.2577910  59.5130380  13.9617620
  42.4996330  61.1674370  11.1882980  42.8761150  60.2946250  11.0756650
  42.4015840  61.5033070  10.2973420  36.6301340  59.5400000   6.6500420
  36.7368090  60.4403730   6.9569180  35.7193700  59.4917970   6.3595070
  46.2820450  58.6624810   8.1211320  47.1030070  58.1721380   8.1636800
  46.3154530  59.2522470   8.8743160  34.2784500  61.4619010  11.8953010
  34.9594610  61.7257380  12.5140410  33.9632550  60.6219880  12.2291020
  38.4709070  62.5086370  10.9825600  38.9787290  63.0067340  11.6230620
  39.0022310  61.7321570  10.8064960  50.5720000  60.6791560  14.6854950
  49.8672170  61.0673270  14.1670060  50.8377920  61.3741850  15.2875880
  36.7545170  57.1484930  15.2489020  36.7563610  57.6657320  14.4434920
  35.9249480  56.6715110  15.2258950  43.1416260  67.2604240   6.7478920
  42.5233530  67.7253690   6.1841640  43.6539510  67.9531720   7.1648430
  38.0048020  66.7880110  13.4262520  37.6717400  67.4149030  14.0683590
  38.1814700  67.3141990  12.6464190  46.5181930  60.6025190  10.8938860
  45.8137500  60.8910080  11.4741970  46.8794090  61.4125300  10.5338420
  36.4360500  58.8594890  13.2559470  36.7777310  59.7036940  12.9613340
  35.4976310  59.0078630  13.3724810  37.2167120  68.7560910  15.2411700
  37.8341120  69.4311990  14.9596150  36.3560240  69.1648890  15.1499200
  32.5099460  67.9460770   4.1218550  32.1327440  68.4347870   3.3903450
  32.7672530  68.6186050   4.7525080  48.1344710  70.2200320  13.1566340
  47.4508230  70.8899430  13.1483010  48.6739000  70.4180970  12.3911200
  49.5868850  60.0479980  11.2848070  48.6393760  60.0818960  11.4163500
  49.9118840  60.8618930  11.6697430  40.1188390  56.3477160   9.5804060
  40.4263370  55.7924050   8.8639560  39.1889090  56.4821620   9.3977050
  45.6703450  72.0644450  11.8711520  45.6830610  71.6606740  11.0033780
  45.1178670  72.8391740  11.7672950  46.9648870  68.7860670   6.9601690
  46.8545200  67.8435000   7.0851110  46.9617120  69.1476310   7.8464450
  45.0688890  66.9674290  13.1994130  45.4857680  66.7534400  12.3647590
  45.7928710  67.2247080  13.7702750  42.5069150  64.4125990   6.3164180
  41.5798430  64.3463370   6.5452650  42.6593970  65.3506120   6.2019420
  42.4938230  60.6842990   3.3131340  41.5541900  60.8456950   3.3983800
  42.8121490  61.4028670   2.7667330  49.0150990  65.3661510  13.2910370
  48.1869620  65.4354600  12.8160500  49.6101470  65.9515820  12.8226200
  46.5366440  65.9746290   6.8199430  45.9178860  65.6365840   6.1725730
  46.5190890  65.3306050   7.5278620  45.9793000  62.1530830  14.2365240
  45.5664180  62.9784540  14.4905230  45.2468950  61.5675870  14.0441600
  38.1125790  64.9390730   9.0983910  37.7082790  64.2267980   8.6029810
  38.1988910  64.5943970   9.9871950  38.5807490  68.6258290  11.2623120
  38.2835780  68.0203760  10.5830900  39.5307310  68.6635600  11.1512480
  36.8254410  61.7133940  12.8782950  37.3769000  61.8229280  12.1036200
  37.3397920  62.0871540  13.5938180  46.6693100  72.1990160  14.9246220
  46.1923660  73.0062350  14.7318830  45.9854890  71.5468490  15.0772430
  37.6725920  68.3639980  17.9130920  36.7754450  68.5879950  18.1604320
  37.6978790  68.4874920  16.9642320  44.7131140  65.2133100   3.8272180
  45.1524420  64.3755530   3.6810000  45.4259560  65.8462500   3.9136320
  36.4997140  65.2353300  16.4888290  36.3604910  66.1076100  16.8575690
  35.6178500  64.8926110  16.3436230  42.8226520  70.1529170   7.7953420
  43.2622430  70.8953500   7.3808810  42.7613410  70.3955740   8.7192380
  38.2977490  71.1775000  18.6973440  38.2692920  71.5817950  17.8301870
  38.1342460  70.2485360  18.5345040  48.2948280  56.4675910   2.1413220
  47.9820940  56.5602740   3.0412290  49.0560750  57.0456940   2.0910650
  34.8130420  63.8335710   6.5990560  34.6928020  64.5597800   5.9871830
  34.5031310  63.0638620   6.1218470  50.2492310  71.9602100  19.9937610
  50.7252030  72.4384990  20.6726690  50.8699470  71.8919590  19.2683110
  32.4515790  67.0050850  12.4059200  32.5296210  67.1399620  11.4614920
  33.0657470  66.2966740  12.5987320  33.6963420  68.7051040   8.8165380
  33.2891500  68.8465630   7.9618980  34.5876430  68.4211200   8.6136590
  49.6525560  69.1514950  17.1537620  49.7788620  68.9126830  16.2354800
  49.6946940  68.3199490  17.6259700  43.5142300  72.8542950  15.7232430
  44.0286970  72.7650960  16.5254860  42.6711380  73.2002650  16.0160340
  45.4896700  73.1398290   5.1516430  45.3297840  72.8501230   6.0498260
  45.3243410  72.3638420   4.6161660  37.9685080  72.9196820   6.9288050
  37.7927560  72.0032360   6.7155850  37.1140820  73.2784110   7.1685850
  45.1922830  70.6485850   3.7114430  44.4987990  70.6463140   3.0516710
  45.9345690  70.2245170   3.2808600  44.7572760  72.2748560   7.7862920
  45.2129710  71.4937940   8.1001540  45.0965280  72.9855380   8.3304100
  49.5049570  61.2047410  18.1187360  48.8893840  61.7127080  17.5902820
  49.1845990  60.3045740  18.0613300  32.5075310  68.0465020  14.9453660
  32.6706350  67.5770380  14.1273030  32.9727760  67.5388580  15.6102500
  37.2794080  57.1770780   9.9814230  36.8362230  57.9580320   9.6498750
  37.8379070  57.5000670  10.6885170  41.5663890  60.0439300  15.5849550
  41.1043260  60.2522320  16.3969490  41.1642000  59.2298650  15.2820220
  46.5668400  61.2648250  16.7146210  45.7161990  60.9654000  17.0355280
  46.4070190  61.5090260  15.8030030  43.6618110  62.7650000  18.8145000
  43.9871520  61.9313750  18.4747230  44.4498440  63.2878520  18.9623330
  40.3952900  56.7981480   4.8620060  39.7707080  56.7941350   5.5873370
  40.3083020  55.9312440   4.4656030  39.3169980  57.7218110  11.8403830
  39.6142310  58.6280940  11.7595850  39.8655540  57.2336890  11.2263400
  37.0708300  62.3004350   7.7095480  36.8449220  62.0841520   8.6142100
  36.2900830  62.7332810   7.3641450  44.3006060  62.3067720   6.3086130
  43.7014950  63.0303520   6.1249750  44.8485670  62.2444500   5.5262580
  39.5107510  63.1989930  18.3755750  39.4151110  62.2584660  18.2256150
  40.3539490  63.4205000  17.9803820  42.9070930  60.9431260   8.3389410
  43.3000500  61.2603460   7.5258100  43.2687780  60.0643140   8.4533930
  34.6418050  59.6103600  16.5289530  34.2481440  60.4578810  16.7362310
  33.9536450  58.9729970  16.7198170  41.2163100  59.6938570  19.5986270
  40.5261420  59.5010770  20.2332360  41.9595400  59.9773210  20.1310570
  31.9435100  57.5332060  10.5619610  31.6548150  58.1034920  11.2744590
  32.6880860  57.0536510  10.9250840  43.4926070  63.5337010  12.4340190
  42.7607190  64.0423820  12.7830290  43.0950410  62.7166990  12.1328970
  39.9303460  60.2091210  10.8392680  39.9339520  59.7681160   9.9897220
  40.8254580  60.5308540  10.9464500  35.7805840  60.0917700   9.7986890
  35.4405890  60.5692930  10.5553940  35.0183160  59.6382820   9.4387990
  39.9923610  61.2103290   3.8299440  40.1136430  61.1689770   4.7785260
  39.6072120  62.0727440   3.6746170  43.9551980  58.9870690  11.8463130
  43.9724720  59.4379340  12.6904980  43.7067560  58.0876330  12.0596570
  39.0045110  63.5204430   3.2282740  38.4362010  63.0722680   2.6018650
  39.7134110  63.8797210   2.6947890  47.3822730  56.4002870  17.6849510
  47.7068500  55.6692530  18.2107490  47.4179240  56.0816510  16.7830500
  34.0814290  67.4216450  17.1049470  33.6969080  66.7810120  17.7032430
  34.3926480  68.1252570  17.6744200  40.2311430  64.2692990  12.5858090
  40.5981560  63.7951560  13.3319430  40.0416490  65.1434560  12.9266430
  33.0951920  59.0136680   8.7151560  32.8098840  58.6492350   9.5530180
  33.0330780  58.2817140   8.1014700  38.0210800  63.3101630  14.9042300
  37.7167870  64.1893610  15.1292660  38.9757260  63.3701420  14.9399740
  36.5492590  67.5162620   5.5009150  35.7754850  66.9760240   5.3407870
  37.2787220  66.9969230   5.1626910  47.3080570  66.5127980  11.2935540
  48.0279690  67.0083270  10.9031650  47.1062390  65.8345870  10.6489410
  42.7690510  57.9065940   5.4364930  41.9555120  57.4079110   5.3610240
  42.5752460  58.7464190   5.0201280  42.6899370  66.5837040  17.1804540
  42.6236680  65.6632710  16.9262130  42.0604510  66.6812480  17.8949180
  45.4838900  62.2785590   3.7327090  46.3718520  62.5902820   3.5578430
  45.4543990  61.4057840   3.3407670  36.5929990  67.1843000   9.1387960
  37.1108660  66.3811260   9.0844850  36.1414010  67.1222140   9.9804790
  41.4799490  68.4509280   4.4115260  41.8215190  69.1951510   3.9158580
  40.6512200  68.7640400   4.7740090  34.0774530  64.1504370  16.0513660
  33.7189470  64.8158220  16.6387000  33.7829090  63.3187920  16.4226280
  37.2787650  64.6088610  18.9353210  36.9787790  64.7545790  18.0381030
  38.0498890  64.0493900  18.8426600  42.6216100  69.4057610  16.9308340
  42.6360640  68.4738570  16.7127250  41.9141200  69.4917370  17.5698110
  47.7553170  63.5897430   3.2006950  47.6716890  64.0211650   2.3503390
  48.4747360  64.0495780   3.6333770  48.8327310  66.0464950  16.2776920
  48.1075500  66.6393730  16.0806310  49.3602770  66.0388490  15.4790290
  48.7840420  70.4439690   5.9289080  48.1416580  69.7895310   6.2032800
  48.3971080  70.8494780   5.1529750  44.3626900  67.7725120   9.7760770
  44.7150720  67.1753250   9.1162140  43.4789230  67.4469350   9.9469020
  40.4490180  68.5322810   7.1831180  41.1361310  69.0792020   7.5638770
  39.6622600  69.0763540   7.2180790  32.5882580  64.1495630   2.6748260
  33.4577430  64.4320430   2.9584180  32.0972900  64.9631500   2.5597070
  39.7517390  65.5368840   6.7956540  40.2080170  66.3474090   7.0216730
  39.4005600  65.2191980   7.6275030  42.0550000  71.0475180  14.0248840
  42.6992220  71.2534560  14.7022260  42.4179440  70.2863580  13.5719690
  35.6529170  55.8806490   7.2679060  35.5243800  55.8724390   8.2163980
  34.8291190  56.2189580   6.9170070  43.3282080  69.0507530  12.7426290
  43.9704310  68.3500690  12.8558460  43.8531430  69.8305970  12.5623180
  47.1737800  69.3356150   2.4665430  46.9475380  68.6186590   3.0590070
  46.7834000  69.0868590   1.6287180  45.1019700  69.8502430  15.9462350
  45.4375940  70.4369120  16.6240270  44.1820040  69.7195140  16.1760140
  32.9553830  73.3623010   3.2409890  33.3151470  73.9612350   2.5867160
  32.8146170  73.9082900   4.0144920  32.6523100  57.6397610  16.7285760
  31.9381620  57.8394530  17.3338370  33.0718140  56.8637180  17.1000560
  46.7554050  67.2528090   4.1279590  46.4675750  67.7140780   4.9157470
  47.5506220  66.7925860   4.3963810  32.9395690  71.6277870  17.7152290
  33.0486810  70.6872610  17.5747680  32.2876250  71.8932620  17.0666020
  40.9308280  69.8993760  19.1150410  40.6105150  69.1803000  19.6596100
  40.2566640  70.5748830  19.1886470  38.9722450  70.7454210   4.0583560
  38.9632550  71.4783900   3.4428070  38.0520810  70.4985790   4.1510520
  34.5729090  65.9669100   4.8030320  33.9657040  66.7068000   4.8125620
  35.0478440  66.0568460   3.9768520  44.1461880  60.1319920  14.4787210
  44.5142700  59.3115130  14.8066780  43.2860080  60.1921810  14.8942860
  47.5123910  59.0876860   5.2874770  46.8837070  59.1922530   4.5733000
  47.0175830  59.3073640   6.0768650  41.9582050  70.8082450   2.7208750
  42.0594030  70.6046440   1.7910730  41.0583790  70.5540730   2.9256530
  39.4807940  61.3662810   6.7032650  38.7724090  61.8349150   7.1446260
  39.7652420  60.7084820   7.3377840  41.1063870  62.7859510  14.7025180
  41.6049120  63.2605330  15.3677030  41.2486820  61.8623030  14.9095210
  43.5123370  58.0913470   8.1428440  43.3891150  58.1099600   7.1937950
  44.4607930  58.1392410   8.2626840  40.6000160  73.3268770   7.4156420
  40.8541660  73.2890160   6.4935790  39.6512640  73.2002100   7.4084670
  37.6842960  59.6747890   4.0783360  38.5333490  60.1118040   4.0123550
  37.3174230  59.9868150   4.9055420  48.3130730  59.0027470  15.5453570
  47.8104330  59.7432870  15.8847380  49.1287390  59.3911470  15.2290360
  46.6052740  64.2460650   8.9914930  45.6642880  64.2610880   9.1662620
  46.9196810  63.4596610   9.4375230  36.5834380  65.9280250   2.5518890
  37.3497650  65.8161610   3.1144320  36.6609070  65.2318220   1.8995660
  35.2781140  63.3605320   3.2351780  35.3584730  62.4132830   3.3469180
  36.1700890  63.6912200   3.3412440  48.6078320  71.4169500  10.6669190
  48.7325740  72.2400670  11.1393000  49.4743880  71.2060230  10.3193340
  36.0795850  73.5100710  10.3386320  36.8158330  72.9616170  10.6094890
  36.4636770  74.3756720  10.1992310  32.9641330  69.5774280   6.2127830
  32.0381110  69.8195420   6.2033240  33.4297760  70.4048540   6.0912580
  35.0854130  72.6946780  19.5271900  35.8866860  73.0158830  19.9407300
  34.5705950  72.3342360  20.2491810  39.1898160  72.6831020   2.1611890
  39.9826770  72.9719850   1.7093680  38.6702510  72.2523190   1.4824370
  43.9218760  68.8026650  19.4747310  43.3156920  68.8258250  18.7343060
  43.6172870  68.0709690  20.0114560  45.3519130  72.5306940  18.0856720
  46.3040880  72.4464960  18.0356960  45.2047350  73.1948650  18.7590510
  48.2428330  71.9101150   3.5848630  47.9569840  71.4966290   2.7702810
  48.0447880  72.8388860   3.4649150  32.8051940  65.1820240  18.4707950
  33.3090960  64.6027520  19.0424180  32.0659360  65.4660470  19.0084320
  39.8589880  66.5891230  18.0043470  39.0935550  67.1576230  17.9198140
  40.0405840  66.2967440  17.1111700  42.9478290  66.9654460   2.6296230
  42.3988390  67.4123760   3.2738970  43.5697550  66.4603710   3.1533900
  47.0013230  68.3196560  18.5618490  47.7422700  68.6572320  18.0585950
  46.2385910  68.4888620  18.0088260  34.8375020  63.3249830  19.3658020
  34.8780360  63.0263700  20.2743250  35.6920520  63.7257440  19.2065540
  38.6153410  65.9245380   4.5261530  39.0369830  65.7585250   5.3692920
  38.7404250  65.1145610   4.0316670  36.7780830  61.9041930  17.3332510
  36.2477290  61.4132880  16.7055850  37.4468900  62.3326130  16.7990440
  45.6758890  66.3711390  17.0973700  46.0899910  66.5256470  17.9464120
  44.7409890  66.4966610  17.2599480  46.1481060  63.7107550  19.1012850
  46.7301830  62.9559870  19.0133330  46.3242830  64.2414990  18.3244330
  37.2653130  58.8704300  17.4129800  37.1710000  58.2525050  16.6880670
  36.6850520  59.5970590  17.1859710  40.0314570  57.4277540  14.4457190
  39.5831870  57.4501800  13.6002740  39.3979770  57.0296560  15.0427490
  40.4374120  66.3231870  15.0669630  40.8562230  67.1664600  14.8945870
  39.5182750  66.4603910  14.8376410  42.7738020  64.0548050  16.4507470
  42.8934230  63.4589190  17.1902310  43.6332020  64.0917740  16.0308770
  45.1125920  64.6085240  15.0269980  44.5861140  65.1327860  14.4235120
  45.4557260  65.2412630  15.6579710  38.2881540  72.6284880  16.1827360
  37.7502630  73.3530940  15.8636060  38.5415500  72.1515220  15.3924700
  39.5406790  60.5969400  17.7083290  40.1306480  60.2885250  18.3961110
  38.7227030  60.1249150  17.8643190  44.3600220  60.2135210  17.9416310
  43.6715740  59.5516750  17.8766300  45.0806240  59.7673480  18.3864770
  44.9900620  56.8086840   4.0006570  45.2702910  55.9654740   4.3565990
  44.2166350  57.0409950   4.5145320  41.1443750  73.8636090  16.4414010
  41.0702450  74.7671230  16.7486380  40.2422590  73.5447990  16.4136080
  39.5280040  58.0413850   2.4453770  39.1802040  57.3637840   1.8656220
  39.7292810  57.5803360   3.2597160  41.6929080  73.0294600   4.0640370
  42.5879870  73.3679570   4.0859130  41.7246710  72.3074010   3.4364650
  35.3325240  68.4021650   2.2927370  35.7700110  68.9451320   2.9484950
  35.8172970  67.5768600   2.3023710  32.5471040  71.1910680   9.7447630
  32.8774050  70.3231740   9.5126270  32.9762040  71.3969200  10.5752590
  37.1432960  69.5219690   7.4049600  36.8428500  69.3984660   8.3053510
  37.0370450  68.6628280   6.9965330  33.0361250  72.0581270  12.4829260
  32.5992240  72.2382070  13.3153410  33.6038930  72.8155890  12.3410980
  48.6723430  71.5598270  16.7706570  48.0725420  71.6190830  16.0270490
  48.8017330  70.6203250  16.9003420  49.9124880  69.3016090   2.1076280
  49.0817840  69.3692740   2.5783510  50.0896710  70.1920210   1.8043140
  49.3681340  66.0463570   4.6110480  50.1300250  66.6160220   4.7170170
  49.3835710  65.4790770   5.3818790  32.8685680  64.5701500   8.8418140
  32.2134520  64.3013140   8.1977840  33.7063630  64.4605980   8.3920120
  50.3741310  66.9013670   9.4552410  50.7450140  66.1180990   9.0488380
  51.0143240  67.5902770   9.2769710  47.3575070  68.2850250  14.8682730
  46.5434910  68.7147410  15.1308520  47.7649270  68.8968660  14.2551780
  49.4200510  66.3397940   1.7683000  49.6949350  67.2476820   1.6402220
  49.2311250  66.2760470   2.7044990  45.8176120  59.3642790   3.0636630
  46.2361000  59.1773770   2.2233290  45.5112180  58.5121840   3.3739560
  49.3165850  64.2766930   6.7612430  48.9409450  63.5094860   6.3293720
  48.5868970  64.6589630   7.2487360  33.9061610  64.9554070  13.3821480
  34.2734650  64.8681470  14.2617500  33.3372430  64.1920620  13.2828340
  48.7065470  63.4238450  16.3951950  48.4751560  63.1951200  15.4949900
  48.9670020  64.3438000  16.3496840  33.4577610  61.8663160  17.2879900
  32.5633660  61.8329920  17.6273610  33.9975160  62.0649950  18.0531150
  47.1453540  58.6494880  19.1731650  48.0223720  58.6578280  19.5565650
  47.1574380  57.9125720  18.5624000  32.0823760  61.7800430   4.7843470
  31.1787840  62.0430630   4.6095130  32.5664380  62.0511600   4.0043430
  48.5916810  62.5024420  10.0619670  49.1154290  62.0087070   9.4309840
  49.1776230  62.6374780  10.8067240  48.7706530  62.5864290  13.5839220
  47.8209240  62.5527830  13.6984210  48.9519540  63.4964400  13.3488990
  34.6250970  60.8365970   2.6937850  35.3342670  60.4149190   2.2085130
  33.9090910  60.9041200   2.0621200  48.0816780  61.7597770   6.0012080
  48.5775900  61.5268640   6.7860960  47.8832850  60.9209610   5.5849720
  33.9617320  56.1411490  11.6363120  34.6093510  55.5908870  11.1958280
  34.3819160  56.3954640  12.4578930  49.5103940  60.3958720   8.5349760
  49.4003220  60.2414760   9.4732030  50.2711530  59.8679660   8.2925170
  47.8569660  56.3352850  14.9932760  48.4941880  56.9486990  15.3591950
  48.0044550  56.3713510  14.0481990  50.3994210  58.2266640   1.7755900
  51.3243520  58.0947820   1.5674190  50.3770000  58.3059460   2.7292350
  50.4732700  58.9977300   4.4012610  49.6784200  58.9322420   4.9305520
  50.6775980  59.9327940   4.3897960  47.4151120  73.0368850   8.3951000
  48.0110190  72.7153420   7.7185420  47.6729270  72.5640670   9.1864270
  33.7149320  56.2967160  14.3788440  33.3664140  56.7530980  15.1446620
  33.3837020  55.4024290  14.4610870  35.3213690  69.4686760  18.5441630
  35.2783320  69.0979670  19.4256090  35.4524700  70.4064330  18.6843450
  39.0219720  71.0246350  14.1451350  38.7811080  71.2920910  13.2581870
  39.9622360  71.1952080  14.2002210  41.2274140  57.4879040  17.9007860
  41.1663030  58.0800870  18.6503270  42.1674520  57.3805000  17.7558120
  43.8648700  57.1449100  17.5400150  44.4789110  57.4628390  16.8781230
  44.4098260  56.6597690  18.1596010  50.2823880  73.0440730  14.9461990
  49.7882160  73.4409600  14.2289120  49.6737170  72.4189940  15.3399270
  34.3869960  55.8243360  17.6539210  34.9352950  55.6431410  16.8905320
  34.4525270  55.0337470  18.1895520  35.1601720  72.4149010  15.6639410
  34.5662040  72.2833710  16.4029450  35.1525560  71.5787150  15.1981510
  44.6056740  55.7081240  13.8669440  43.7316580  56.0416350  13.6642370
  44.4967490  55.2354420  14.6921310  45.5128720  57.9152110  15.2511160
  45.1842080  57.1003870  14.8712890  46.4611020  57.8721920  15.1276850
  47.9663330  73.6864150  12.2248730  47.5066300  74.4379960  11.8506750
  47.3375790  72.9670620  12.1663530  34.7913950  69.7807390  14.6147450
  34.0648010  69.1612680  14.5473400  34.8523100  70.1748000  13.7445530
  38.3959050  71.9952390  11.3996860  38.9124070  71.3839750  10.8745120
  39.0456430  72.4981170  11.8907870  41.1354550  72.8860880  12.2265840
  41.4232360  72.6315180  11.3498850  41.6477770  72.3338240  12.8171410
  42.3531560  56.6251080  12.8062350  41.5703350  57.0996580  13.0859110
  42.0594490  55.7205910  12.6975530  46.9052630  57.3274180  10.8511440
  47.3460720  57.2719280  10.0033040  46.6360220  58.2432190  10.9221620
  48.7691200  56.9589420   8.8620260  48.7079600  56.0150640   8.7151280
  49.5483230  57.0669510   9.4073720  33.0743950  73.0981780   7.8244210
  32.9065990  72.4652460   8.5226100  32.2078460  73.3041180   7.4738400
  33.6971970  56.9298560   5.3276070  34.4551330  57.0427440   4.7540100
  33.2349140  57.7667760   5.2819500  40.2385780  59.0437830   8.3178380
  39.4260290  58.6694720   7.9774260  40.7427420  58.2882910   8.6199570
  44.7410760  55.7080280   9.5561450  45.3440130  56.2800490  10.0309970
  44.0003750  56.2719720   9.3335350  47.8845360  56.1101840   4.8301730
  48.0795990  57.0085290   5.0969160  47.0975230  55.8788920   5.3234680
  34.6806650  71.7915010   5.2694350  34.1554270  72.1723040   4.5656310
  34.6051230  72.4165780   5.9904060  36.0697120  57.4562610   3.8678040
  36.5989880  56.6692410   3.7385990  36.7025440  58.1353800   4.1013570
  38.2634960  57.1937750   6.9223430  37.6337700  56.4925060   7.0893560
  37.7240100  57.9541880   6.7056590  41.2026910  73.8076980  19.5934040
  42.1294220  73.5721250  19.6370000  41.1877340  74.6348980  19.1120070
  49.4371970  73.3502550   6.5908290  49.6124160  72.6640290   5.9469210
  48.7393540  73.8749600   6.1984960  38.3890520  56.4721730  19.3575920
  38.1074790  56.9755330  18.5936740  38.7710220  55.6743480  18.9918050
  37.2799620  73.7397390   4.1443600  38.0118440  73.4556670   3.5967490
  37.5393290  73.5010670   5.0342980  36.4414410  69.8562120   4.1489930
  35.8123290  70.3247220   4.6975760  36.5562240  69.0111340   4.5836120
  44.9905980  55.8875310  19.9356390  44.8771430  56.2069920  20.8307910
  45.8075720  56.2887820  19.6393670  47.7704470  73.0346840  19.4175080
  48.5629790  72.5396070  19.2101040  48.0637620  73.7136980  20.0250690
  43.8964130  45.1324290  65.3965090  43.8158180  44.2178900  65.1256800
  43.4828550  45.6291360  64.6904800  42.0282170  46.9103310  67.2774360
  41.2524270  46.4303750  67.5672930  42.6795100  46.2308960  67.1030520
  36.0448000  47.2223120  68.1550120  35.2132880  46.9671830  68.5546630
  36.6528980  47.2933890  68.8908040  46.0489600  51.3163500  66.0573490
  45.5871130  50.5450740  66.3860660  46.8615150  51.3429570  66.5625940
  36.0249260  51.2563210  68.3508140  36.3277300  50.3660950  68.1718360
  36.7692850  51.8133430  68.1230390  34.4539950  42.1825010  61.9392510
  33.5656650  42.5240980  61.8372390  34.7381140  41.9825330  61.0473340
  32.4172960  44.7830660  67.8232210  32.9889070  44.0152860  67.8235850
  32.4174500  45.0819420  66.9138820  42.2752910  53.6021510  65.6777480
  41.6564350  54.0579010  65.1071920  43.1304690  53.7572970  65.2767180
  41.4691160  49.5860500  67.2844520  41.3999440  48.6450440  67.1233650
  42.2311020  49.6761910  67.8567090  33.6597830  40.1915020  69.6101140
  33.4800670  39.2940770  69.8903900  33.2577910  40.7386890  70.2848090
  42.4996330  42.3930880  67.5113450  42.8761150  41.5202760  67.3987120
  42.4015840  42.7289580  66.6203890  36.6301340  40.7656510  62.9730890
  36.7368090  41.6660240  63.2799650  35.7193700  40.7174480  62.6825540
  46.2820450  39.8881320  64.4441790  47.1030070  39.3977890  64.4867270
  46.3154530  40.4778980  65.1973630  34.2784500  42.6875520  68.2183480
  34.9594610  42.9513890  68.8370880  33.9632550  41.8476390  68.5521490
  38.4709070  43.7342880  67.3056070  38.9787290  44.2323850  67.9461090
  39.0022310  42.9578080  67.1295430  50.5720000  41.9048070  71.0085420
  49.8672170  42.2929780  70.4900530  50.8377920  42.5998360  71.6106350
  36.7545170  38.3741440  71.5719490  36.7563610  38.8913830  70.7665390
  35.9249480  37.8971620  71.5489420  43.1416260  48.4860750  63.0709390
  42.5233530  48.9510200  62.5072110  43.6539510  49.1788230  63.4878900
  38.0048020  48.0136620  69.7492990  37.6717400  48.6405540  70.3914060
  38.1814700  48.5398500  68.9694660  46.5181930  41.8281700  67.2169330
  45.8137500  42.1166590  67.7972440  46.8794090  42.6381810  66.8568890
  36.4360500  40.0851400  69.5789940  36.7777310  40.9293450  69.2843810
  35.4976310  40.2335140  69.6955280  37.2167120  49.9817420  71.5642170
  37.8341120  50.6568500  71.2826620  36.3560240  50.3905400  71.4729670
  32.5099460  49.1717280  60.4449020  32.1327440  49.6604380  59.7133920
  32.7672530  49.8442560  61.0755550  48.1344710  51.4456830  69.4796810
  47.4508230  52.1155940  69.4713480  48.6739000  51.6437480  68.7141670
  49.5868850  41.2736490  67.6078540  48.6393760  41.3075470  67.7393970
  49.9118840  42.0875440  67.9927900  40.1188390  37.5733670  65.9034530
  40.4263370  37.0180560  65.1870030  39.1889090  37.7078130  65.7207520
  45.6703450  53.2900960  68.1941990  45.6830610  52.8863250  67.3264250
  45.1178670  54.0648250  68.0903420  46.9648870  50.0117180  63.2832160
  46.8545200  49.0691510  63.4081580  46.9617120  50.3732820  64.1694920
  45.0688890  48.1930800  69.5224600  45.4857680  47.9790910  68.6878060
  45.7928710  48.4503590  70.0933220  42.5069150  45.6382500  62.6394650
  41.5798430  45.5719880  62.8683120  42.6593970  46.5762630  62.5249890
  42.4938230  41.9099500  59.6361810  41.5541900  42.0713460  59.7214270
  42.8121490  42.6285180  59.0897800  49.0150990  46.5918020  69.6140840
  48.1869620  46.6611110  69.1390970  49.6101470  47.1772330  69.1456670
  46.5366440  47.2002800  63.1429900  45.9178860  46.8622350  62.4956200
  46.5190890  46.5562560  63.8509090  45.9793000  43.3787340  70.5595710
  45.5664180  44.2041050  70.8135700  45.2468950  42.7932380  70.3672070
  38.1125790  46.1647240  65.4214380  37.7082790  45.4524490  64.9260280
  38.1988910  45.8200480  66.3102420  38.5807490  49.8514800  67.5853590
  38.2835780  49.2460270  66.9061370  39.5307310  49.8892110  67.4742950
  36.8254410  42.9390450  69.2013420  37.3769000  43.0485790  68.4266670
  37.3397920  43.3128050  69.9168650  46.6693100  53.4246670  71.2476690
  46.1923660  54.2318860  71.0549300  45.9854890  52.7725000  71.4002900
  37.6725920  49.5896490  74.2361390  36.7754450  49.8136460  74.4834790
  37.6978790  49.7131430  73.2872790  44.7131140  46.4389610  60.1502650
  45.1524420  45.6012040  60.0040470  45.4259560  47.0719010  60.2366790
  36.4997140  46.4609810  72.8118760  36.3604910  47.3332610  73.1806160
  35.6178500  46.1182620  72.6666700  42.8226520  51.3785680  64.1183890
  43.2622430  52.1210010  63.7039280  42.7613410  51.6212250  65.0422850
  38.2977490  52.4031510  75.0203910  38.2692920  52.8074460  74.1532340
  38.1342460  51.4741870  74.8575510  48.2948280  37.6932420  58.4643690
  47.9820940  37.7859250  59.3642760  49.0560750  38.2713450  58.4141120
  34.8130420  45.0592220  62.9221030  34.6928020  45.7854310  62.3102300
  34.5031310  44.2895130  62.4448940  32.4515790  48.2307360  68.7289670
  32.5296210  48.3656130  67.7845390  33.0657470  47.5223250  68.9217790
  33.6963420  49.9307550  65.1395850  33.2891500  50.0722140  64.2849450
  34.5876430  49.6467710  64.9367060  49.6525560  50.3771460  73.4768090
  49.7788620  50.1383340  72.5585270  49.6946940  49.5456000  73.9490170
  43.5142300  54.0799460  72.0462900  44.0286970  53.9907470  72.8485330
  42.6711380  54.4259160  72.3390810  45.4896700  54.3654800  61.4746900
  45.3297840  54.0757740  62.3728730  45.3243410  53.5894930  60.9392130
  37.9685080  54.1453330  63.2518520  37.7927560  53.2288870  63.0386320
  37.1140820  54.5040620  63.4916320  45.1922830  51.8742360  60.0344900
  44.4987990  51.8719650  59.3747180  45.9345690  51.4501680  59.6039070
  44.7572760  53.5005070  64.1093390  45.2129710  52.7194450  64.4232010
  45.0965280  54.2111890  64.6534570  49.5049570  42.4303920  74.4417830
  48.8893840  42.9383590  73.9133290  49.1845990  41.5302250  74.3843770
  32.5075310  49.2721530  71.2684130  32.6706350  48.8026890  70.4503500
  32.9727760  48.7645090  71.9332970  37.2794080  38.4027290  66.3044700
  36.8362230  39.1836830  65.9729220  37.8379070  38.7257180  67.0115640
  41.5663890  41.2695810  71.9080020  41.1043260  41.4778830  72.7199960
  41.1642000  40.4555160  71.6050690  46.5668400  42.4904760  73.0376680
  45.7161990  42.1910510  73.3585750  46.4070190  42.7346770  72.1260500
  43.6618110  43.9906510  75.1375470  43.9871520  43.1570260  74.7977700
  44.4498440  44.5135030  75.2853800  40.3952900  38.0237990  61.1850530
  39.7707080  38.0197860  61.9103840  40.3083020  37.1568950  60.7886500
  39.3169980  38.9474620  68.1634300  39.6142310  39.8537450  68.0826320
  39.8655540  38.4593400  67.5493870  37.0708300  43.5260860  64.0325950
  36.8449220  43.3098030  64.9372570  36.2900830  43.9589320  63.6871920
  44.3006060  43.5324230  62.6316600  43.7014950  44.2560030  62.4480220
  44.8485670  43.4701010  61.8493050  39.5107510  44.4246440  74.6986220
  39.4151110  43.4841170  74.5486620  40.3539490  44.6461510  74.3034290
  42.9070930  42.1687770  64.6619880  43.3000500  42.4859970  63.8488570
  43.2687780  41.2899650  64.7764400  34.6418050  40.8360110  72.8520000
  34.2481440  41.6835320  73.0592780  33.9536450  40.1986480  73.0428640
  31.9435100  38.7588570  66.8850080  31.6548150  39.3291430  67.5975060
  32.6880860  38.2793020  67.2481310  32.1305330  42.7008690  58.0952800
  32.0480000  43.6439450  58.2367790  31.7788390  42.5583600  57.2165150
  43.4926070  44.7593520  68.7570660  42.7607190  45.2680330  69.1060760
  43.0950410  43.9423500  68.4559440  39.9303460  41.4347720  67.1623150
  39.9339520  40.9937670  66.3127690  40.8254580  41.7565050  67.2694970
  35.7805840  41.3174210  66.1217360  35.4405890  41.7949440  66.8784410
  35.0183160  40.8639330  65.7618460  39.9923610  42.4359800  60.1529910
  40.1136430  42.3946280  61.1015730  39.6072120  43.2983950  59.9976640
  43.9551980  40.2127200  68.1693600  43.9724720  40.6635850  69.0135450
  43.7067560  39.3132840  68.3827040  39.0045110  44.7460940  59.5513210
  38.4362010  44.2979190  58.9249120  39.7134110  45.1053720  59.0178360
  47.3822730  37.6259380  74.0079980  47.7068500  36.8949040  74.5337960
  47.4179240  37.3073020  73.1060970  34.0814290  48.6472960  73.4279940
  33.6969080  48.0066630  74.0262900  34.3926480  49.3509080  73.9974670
  40.2311430  45.4949500  68.9088560  40.5981560  45.0208070  69.6549900
  40.0416490  46.3691070  69.2496900  33.0951920  40.2393190  65.0382030
  32.8098840  39.8748860  65.8760650  33.0330780  39.5073650  64.4245170
  38.0210800  44.5358140  71.2272770  37.7167870  45.4150120  71.4523130
  38.9757260  44.5957930  71.2630210  36.5492590  48.7419130  61.8239620
  35.7754850  48.2016750  61.6638340  37.2787220  48.2225740  61.4857380
  47.3080570  47.7384490  67.6166010  48.0279690  48.2339780  67.2262120
  47.1062390  47.0602380  66.9719880  42.7690510  39.1322450  61.7595400
  41.9555120  38.6335620  61.6840710  42.5752460  39.9720700  61.3431750
  42.6899370  47.8093550  73.5035010  42.6236680  46.8889220  73.2492600
  42.0604510  47.9068990  74.2179650  45.4838900  43.5042100  60.0557560
  46.3718520  43.8159330  59.8808900  45.4543990  42.6314350  59.6638140
  36.5929990  48.4099510  65.4618430  37.1108660  47.6067770  65.4075320
  36.1414010  48.3478650  66.3035260  41.4799490  49.6765790  60.7345730
  41.8215190  50.4208020  60.2389050  40.6512200  49.9896910  61.0970560
  34.0774530  45.3760880  72.3744130  33.7189470  46.0414730  72.9617470
  33.7829090  44.5444430  72.7456750  37.2787650  45.8345120  75.2583680
  36.9787790  45.9802300  74.3611500  38.0498890  45.2750410  75.1657070
  42.6216100  50.6314120  73.2538810  42.6360640  49.6995080  73.0357720
  41.9141200  50.7173880  73.8928580  47.7553170  44.8153940  59.5237420
  47.6716890  45.2468160  58.6733860  48.4747360  45.2752290  59.9564240
  48.8327310  47.2721460  72.6007390  48.1075500  47.8650240  72.4036780
  49.3602770  47.2645000  71.8020760  48.7840420  51.6696200  62.2519550
  48.1416580  51.0151820  62.5263270  48.3971080  52.0751290  61.4760220
  44.3626900  48.9981630  66.0991240  44.7150720  48.4009760  65.4392610
  43.4789230  48.6725860  66.2699490  40.4490180  49.7579320  63.5061650
  41.1361310  50.3048530  63.8869240  39.6622600  50.3020050  63.5411260
  32.5882580  45.3752140  58.9978730  33.4577430  45.6576940  59.2814650
  32.0972900  46.1888010  58.8827540  39.7517390  46.7625350  63.1187010
  40.2080170  47.5730600  63.3447200  39.4005600  46.4448490  63.9505500
  42.0550000  52.2731690  70.3479310  42.6992220  52.4791070  71.0252730
  42.4179440  51.5120090  69.8950160  35.6529170  37.1063000  63.5909530
  35.5243800  37.0980900  64.5394450  34.8291190  37.4446090  63.2400540
  43.3282080  50.2764040  69.0656760  43.9704310  49.5757200  69.1788930
  43.8531430  51.0562480  68.8853650  47.1737800  50.5612660  58.7895900
  46.9475380  49.8443100  59.3820540  46.7834000  50.3125100  57.9517650
  45.1019700  51.0758940  72.2692820  45.4375940  51.6625630  72.9470740
  44.1820040  50.9451650  72.4990610  32.9553830  54.5879520  59.5640360
  33.3151470  55.1868860  58.9097630  32.8146170  55.1339410  60.3375390
  32.6523100  38.8654120  73.0516230  31.9381620  39.0651040  73.6568840
  33.0718140  38.0893690  73.4231030  46.7554050  48.4784600  60.4510060
  46.4675750  48.9397290  61.2387940  47.5506220  48.0182370  60.7194280
  32.9395690  52.8534380  74.0382760  33.0486810  51.9129120  73.8978150
  32.2876250  53.1189130  73.3896490  40.9308280  51.1250270  75.4380880
  40.6105150  50.4059510  75.9826570  40.2566640  51.8005340  75.5116940
  38.9722450  51.9710720  60.3814030  38.9632550  52.7040410  59.7658540
  38.0520810  51.7242300  60.4740990  34.5729090  47.1925610  61.1260790
  33.9657040  47.9324510  61.1356090  35.0478440  47.2824970  60.2998990
  44.1461880  41.3576430  70.8017680  44.5142700  40.5371640  71.1297250
  43.2860080  41.4178320  71.2173330  47.5123910  40.3133370  61.6105240
  46.8837070  40.4179040  60.8963470  47.0175830  40.5330150  62.3999120
  41.9582050  52.0338960  59.0439220  42.0594030  51.8302950  58.1141200
  41.0583790  51.7797240  59.2487000  39.4807940  42.5919320  63.0263120
  38.7724090  43.0605660  63.4676730  39.7652420  41.9341330  63.6608310
  41.1063870  44.0116020  71.0255650  41.6049120  44.4861840  71.6907500
  41.2486820  43.0879540  71.2325680  43.5123370  39.3169980  64.4658910
  43.3891150  39.3356110  63.5168420  44.4607930  39.3648920  64.5857310
  40.6000160  54.5525280  63.7386890  40.8541660  54.5146670  62.8166260
  39.6512640  54.4258610  63.7315140  37.6842960  40.9004400  60.4013830
  38.5333490  41.3374550  60.3354020  37.3174230  41.2124660  61.2285890
  48.3130730  40.2283980  71.8684040  47.8104330  40.9689380  72.2077850
  49.1287390  40.6167980  71.5520830  46.6052740  45.4717160  65.3145400
  45.6642880  45.4867390  65.4893090  46.9196810  44.6853120  65.7605700
  36.5834380  47.1536760  58.8749360  37.3497650  47.0418120  59.4374790
  36.6609070  46.4574730  58.2226130  35.2781140  44.5861830  59.5582250
  35.3584730  43.6389340  59.6699650  36.1700890  44.9168710  59.6642910
  48.6078320  52.6426010  66.9899660  48.7325740  53.4657180  67.4623470
  49.4743880  52.4316740  66.6423810  36.0795850  54.7357220  66.6616790
  36.8158330  54.1872680  66.9325360  36.4636770  55.6013230  66.5222780
  32.9641330  50.8030790  62.5358300  32.0381110  51.0451930  62.5263710
  33.4297760  51.6305050  62.4143050  39.1898160  53.9087530  58.4842360
  39.9826770  54.1976360  58.0324150  38.6702510  53.4779700  57.8054840
  45.3519130  53.7563450  74.4087190  46.3040880  53.6721470  74.3587430
  45.2047350  54.4205160  75.0820980  48.2428330  53.1357660  59.9079100
  47.9569840  52.7222800  59.0933280  48.0447880  54.0645370  59.7879620
  32.8051940  46.4076750  74.7938420  33.3090960  45.8284030  75.3654650
  32.0659360  46.6916980  75.3314790  39.7075560  49.1290940  58.3484710
  39.6026200  48.5143290  59.0746090  39.5399780  48.6056830  57.5647720
  39.8589880  47.8147740  74.3273940  39.0935550  48.3832740  74.2428610
  40.0405840  47.5223950  73.4342170  42.9478290  48.1910970  58.9526700
  42.3988390  48.6380270  59.5969440  43.5697550  47.6860220  59.4764370
  47.0013230  49.5453070  74.8848960  47.7422700  49.8828830  74.3816420
  46.2385910  49.7145130  74.3318730  38.6153410  47.1501890  60.8492000
  39.0369830  46.9841760  61.6923390  38.7404250  46.3402120  60.3547140
  36.7780830  43.1298440  73.6562980  36.2477290  42.6389390  73.0286320
  37.4468900  43.5582640  73.1220910  41.1281050  46.1739500  58.0969100
  41.6486710  45.4588520  57.7310250  41.7749450  46.8125370  58.3969610
  45.6758890  47.5967900  73.4204170  46.0899910  47.7512980  74.2694590
  44.7409890  47.7223120  73.5829950  46.1481060  44.9364060  75.4243320
  46.7301830  44.1816380  75.3363800  46.3242830  45.4671500  74.6474800
  37.2653130  40.0960810  73.7360270  37.1710000  39.4781560  73.0111140
  36.6850520  40.8227100  73.5090180  40.0314570  38.6534050  70.7687660
  39.5831870  38.6758310  69.9233210  39.3979770  38.2553070  71.3657960
  40.4374120  47.5488380  71.3900100  40.8562230  48.3921110  71.2176340
  39.5182750  47.6860420  71.1606880  42.7738020  45.2804560  72.7737940
  42.8934230  44.6845700  73.5132780  43.6332020  45.3174250  72.3539240
  45.1125920  45.8341750  71.3500450  44.5861140  46.3584370  70.7465590
  45.4557260  46.4669140  71.9810180  37.5112310  43.2235120  57.7950160
  37.3101370  42.3602480  58.1563500  37.3404360  43.1368480  56.8571760
  38.2881540  53.8541390  72.5057830  37.7502630  54.5787450  72.1866530
  38.5415500  53.3771730  71.7155170  39.5406790  41.8225910  74.0313760
  40.1306480  41.5141760  74.7191580  38.7227030  41.3505660  74.1873660
  44.3600220  41.4391720  74.2646780  43.6715740  40.7773260  74.1996770
  45.0806240  40.9929990  74.7095240  44.9900620  38.0343350  60.3237040
  45.2702910  37.1911250  60.6796460  44.2166350  38.2666460  60.8375790
  36.3095110  40.3235740  57.7828040  36.6121010  40.3303170  56.8747190
  37.0489700  39.9733600  58.2795700  41.1443750  55.0892600  72.7644480
  41.0702450  55.9927740  73.0716850  40.2422590  54.7704500  72.7366550
  39.5280040  39.2670360  58.7684240  39.1802040  38.5894350  58.1886690
  39.7292810  38.8059870  59.5827630  41.6929080  54.2551110  60.3870840
  42.5879870  54.5936080  60.4089600  41.7246710  53.5330520  59.7595120
  35.3325240  49.6278160  58.6157840  35.7700110  50.1707830  59.2715420
  35.8172970  48.8025110  58.6254180  32.5471040  52.4167190  66.0678100
  32.8774050  51.5488250  65.8356740  32.9762040  52.6225710  66.8983060
  37.1432960  50.7476200  63.7280070  36.8428500  50.6241170  64.6283980
  37.0370450  49.8884790  63.3195800  33.0361250  53.2837780  68.8059730
  32.5992240  53.4638580  69.6383880  33.6038930  54.0412400  68.6641450
  48.6723430  52.7854780  73.0937040  48.0725420  52.8447340  72.3500960
  48.8017330  51.8459760  73.2233890  49.9124880  50.5272600  58.4306750
  49.0817840  50.5949250  58.9013980  50.0896710  51.4176720  58.1273610
  49.3681340  47.2720080  60.9340950  50.1300250  47.8416730  61.0400640
  49.3835710  46.7047280  61.7049260  32.8685680  45.7958010  65.1648610
  32.2134520  45.5269650  64.5208310  33.7063630  45.6862490  64.7150590
  50.3741310  48.1270180  65.7782880  50.7450140  47.3437500  65.3718850
  51.0143240  48.8159280  65.6000180  47.3575070  49.5106760  71.1913200
  46.5434910  49.9403920  71.4538990  47.7649270  50.1225170  70.5782250
  49.4200510  47.5654450  58.0913470  49.6949350  48.4733330  57.9632690
  49.2311250  47.5016980  59.0275460  45.8176120  40.5899300  59.3867100
  46.2361000  40.4030280  58.5463760  45.5112180  39.7378350  59.6970030
  49.3165850  45.5023440  63.0842900  48.9409450  44.7351370  62.6524190
  48.5868970  45.8846140  63.5717830  33.9061610  46.1810580  69.7051950
  34.2734650  46.0937980  70.5847970  33.3372430  45.4177130  69.6058810
  48.7065470  44.6494960  72.7182420  48.4751560  44.4207710  71.8180370
  48.9670020  45.5694510  72.6727310  33.4577610  43.0919670  73.6110370
  32.5633660  43.0586430  73.9504080  33.9975160  43.2906460  74.3761620
  47.1453540  39.8751390  75.4962120  48.0223720  39.8834790  75.8796120
  47.1574380  39.1382230  74.8854470  32.0823760  43.0056940  61.1073940
  31.1787840  43.2687140  60.9325600  32.5664380  43.2768110  60.3273900
  48.5916810  43.7280930  66.3850140  49.1154290  43.2343580  65.7540310
  49.1776230  43.8631290  67.1297710  48.7706530  43.8120800  69.9069690
  47.8209240  43.7784340  70.0214680  48.9519540  44.7220910  69.6719460
  34.6250970  42.0622480  59.0168320  35.3342670  41.6405700  58.5315600
  33.9090910  42.1297710  58.3851670  34.2725130  38.1161810  58.0570970
  34.9953260  38.6570750  58.3752190  34.5449650  37.8425230  57.1812510
  48.0816780  42.9854280  62.3242550  48.5775900  42.7525150  63.1091430
  47.8832850  42.1466120  61.9080190  33.9617320  37.3668000  67.9593590
  34.6093510  36.8165380  67.5188750  34.3819160  37.6211150  68.7809400
  49.5103940  41.6215230  64.8580230  49.4003220  41.4671270  65.7962500
  50.2711530  41.0936170  64.6155640  47.8569660  37.5609360  71.3163230
  48.4941880  38.1743500  71.6822420  48.0044550  37.5970020  70.3712460
  50.3994210  39.4523150  58.0986370  51.3243520  39.3204330  57.8904660
  50.3770000  39.5315970  59.0522820  50.4732700  40.2233810  60.7243080
  49.6784200  40.1578930  61.2535990  50.6775980  41.1584450  60.7128430
  47.4151120  54.2625360  64.7181470  48.0110190  53.9409930  64.0415890
  47.6729270  53.7897180  65.5094740  33.7149320  37.5223670  70.7018910
  33.3664140  37.9787490  71.4677090  33.3837020  36.6280800  70.7841340
  35.3213690  50.6943270  74.8672100  35.2783320  50.3236180  75.7486560
  35.4524700  51.6320840  75.0073920  39.0219720  52.2502860  70.4681820
  38.7811080  52.5177420  69.5812340  39.9622360  52.4208590  70.5232680
  41.2274140  38.7135550  74.2238330  41.1663030  39.3057380  74.9733740
  42.1674520  38.6061510  74.0788590  43.8648700  38.3705610  73.8630620
  44.4789110  38.6884900  73.2011700  44.4098260  37.8854200  74.4826480
  50.2823880  54.2697240  71.2692460  49.7882160  54.6666110  70.5519590
  49.6737170  53.6446450  71.6629740  34.3869960  37.0499870  73.9769680
  34.9352950  36.8687920  73.2135790  34.4525270  36.2593980  74.5125990
  35.1601720  53.6405520  71.9869880  34.5662040  53.5090220  72.7259920
  35.1525560  52.8043660  71.5211980  44.6056740  36.9337750  70.1899910
  43.7316580  37.2672860  69.9872840  44.4967490  36.4610930  71.0151780
  45.5128720  39.1408620  71.5741630  45.1842080  38.3260380  71.1943360
  46.4611020  39.0978430  71.4507320  47.9663330  54.9120660  68.5479200
  47.5066300  55.6636470  68.1737220  47.3375790  54.1927130  68.4894000
  34.7913950  51.0063900  70.9377920  34.0648010  50.3869190  70.8703870
  34.8523100  51.4004510  70.0676000  38.3959050  53.2208900  67.7227330
  38.9124070  52.6096260  67.1975590  39.0456430  53.7237680  68.2138340
  41.1354550  54.1117390  68.5496310  41.4232360  53.8571690  67.6729320
  41.6477770  53.5594750  69.1401880  42.3531560  37.8507590  69.1292820
  41.5703350  38.3253090  69.4089580  42.0594490  36.9462420  69.0206000
  46.9052630  38.5530690  67.1741910  47.3460720  38.4975790  66.3263510
  46.6360220  39.4688700  67.2452090  48.7691200  38.1845930  65.1850730
  48.7079600  37.2407150  65.0381750  49.5483230  38.2926020  65.7304190
  33.0743950  54.3238290  64.1474680  32.9065990  53.6908970  64.8456570
  32.2078460  54.5297690  63.7968870  33.6971970  38.1555070  61.6506540
  34.4551330  38.2683950  61.0770570  33.2349140  38.9924270  61.6049970
  40.2385780  40.2694340  64.6408850  39.4260290  39.8951230  64.3004730
  40.7427420  39.5139420  64.9430040  44.7410760  36.9336790  65.8791920
  45.3440130  37.5057000  66.3540440  44.0003750  37.4976230  65.6565820
  47.8845360  37.3358350  61.1532200  48.0795990  38.2341800  61.4199630
  47.0975230  37.1045430  61.6465150  34.6806650  53.0171520  61.5924820
  34.1554270  53.3979550  60.8886780  34.6051230  53.6422290  62.3134530
  36.0697120  38.6819120  60.1908510  36.5989880  37.8948920  60.0616460
  36.7025440  39.3610310  60.4244040  38.2634960  38.4194260  63.2453900
  37.6337700  37.7181570  63.4124030  37.7240100  39.1798390  63.0287060
  41.2026910  55.0333490  75.9164510  42.1294220  54.7977760  75.9600470
  41.1877340  55.8605490  75.4350540  49.4371970  54.5759060  62.9138760
  49.6124160  53.8896800  62.2699680  48.7393540  55.1006110  62.5215430
  38.3890520  37.6978240  75.6806390  38.1074790  38.2011840  74.9167210
  38.7710220  36.8999990  75.3148520  37.2799620  54.9653900  60.4674070
  38.0118440  54.6813180  59.9197960  37.5393290  54.7267180  61.3573450
  36.4414410  51.0818630  60.4720400  35.8123290  51.5503730  61.0206230
  36.5562240  50.2367850  60.9066590  36.0249260  51.2563210  49.5764650
  36.3277300  50.3660950  49.3974870  36.7692850  51.8133430  49.3486900
  42.2752910  53.6021510  46.9033990  41.6564350  54.0579010  46.3328430
  43.1304690  53.7572970  46.5023690  50.5720000  41.9048070  52.2341930
  49.8672170  42.2929780  51.7157040  50.8377920  42.5998360  52.8362860
  36.7545170  38.3741440  52.7976000  36.7563610  38.8913830  51.9921900
  35.9249480  37.8971620  52.7745930  38.0048020  48.0136620  50.9749500
  37.6717400  48.6405540  51.6170570  38.1814700  48.5398500  50.1951170
  36.4360500  40.0851400  50.8046450  36.7777310  40.9293450  50.5100320
  35.4976310  40.2335140  50.9211790  37.2167120  49.9817420  52.7898680
  37.8341120  50.6568500  52.5083130  36.3560240  50.3905400  52.6986180
  48.1344710  51.4456830  50.7053320  47.4508230  52.1155940  50.6969990
  48.6739000  51.6437480  49.9398180  49.5868850  41.2736490  48.8335050
  48.6393760  41.3075470  48.9650480  49.9118840  42.0875440  49.2184410
  45.6703450  53.2900960  49.4198500  45.6830610  52.8863250  48.5520760
  45.1178670  54.0648250  49.3159930  46.6693100  53.4246670  52.4733200
  46.1923660  54.2318860  52.2805810  45.9854890  52.7725000  52.6259410
  37.6725920  49.5896490  55.4617900  36.7754450  49.8136460  55.7091300
  37.6978790  49.7131430  54.5129300  36.4997140  46.4609810  54.0375270
  36.3604910  47.3332610  54.4062670  35.6178500  46.1182620  53.8923210
  38.2977490  52.4031510  56.2460420  38.2692920  52.8074460  55.3788850
  38.1342460  51.4741870  56.0832020  48.2948280  37.6932420  39.6900200
  47.9820940  37.7859250  40.5899270  49.0560750  38.2713450  39.6397630
  50.2492310  53.1858610  57.5424590  50.7252030  53.6641500  58.2213670
  50.8699470  53.1176100  56.8170090  49.6525560  50.3771460  54.7024600
  49.7788620  50.1383340  53.7841780  49.6946940  49.5456000  55.1746680
  43.5142300  54.0799460  53.2719410  44.0286970  53.9907470  54.0741840
  42.6711380  54.4259160  53.5647320  37.9685080  54.1453330  44.4775030
  37.7927560  53.2288870  44.2642830  37.1140820  54.5040620  44.7172830
  49.5049570  42.4303920  55.6674340  48.8893840  42.9383590  55.1389800
  49.1845990  41.5302250  55.6100280  32.5075310  49.2721530  52.4940640
  32.6706350  48.8026890  51.6760010  32.9727760  48.7645090  53.1589480
  41.5663890  41.2695810  53.1336530  41.1043260  41.4778830  53.9456470
  41.1642000  40.4555160  52.8307200  46.5668400  42.4904760  54.2633190
  45.7161990  42.1910510  54.5842260  46.4070190  42.7346770  53.3517010
  43.6618110  43.9906510  56.3631980  43.9871520  43.1570260  56.0234210
  44.4498440  44.5135030  56.5110310  40.3952900  38.0237990  42.4107040
  39.7707080  38.0197860  43.1360350  40.3083020  37.1568950  42.0143010
  39.5107510  44.4246440  55.9242730  39.4151110  43.4841170  55.7743130
  40.3539490  44.6461510  55.5290800  34.6418050  40.8360110  54.0776510
  34.2481440  41.6835320  54.2849290  33.9536450  40.1986480  54.2685150
  41.2163100  40.9195080  57.1473250  40.5261420  40.7267280  57.7819340
  41.9595400  41.2029720  57.6797550  47.3822730  37.6259380  55.2336490
  47.7068500  36.8949040  55.7594470  47.4179240  37.3073020  54.3317480
  34.0814290  48.6472960  54.6536450  33.6969080  48.0066630  55.2519410
  34.3926480  49.3509080  55.2231180  38.0210800  44.5358140  52.4529280
  37.7167870  45.4150120  52.6779640  38.9757260  44.5957930  52.4886720
  42.6899370  47.8093550  54.7291520  42.6236680  46.8889220  54.4749110
  42.0604510  47.9068990  55.4436160  34.0774530  45.3760880  53.6000640
  33.7189470  46.0414730  54.1873980  33.7829090  44.5444430  53.9713260
  37.2787650  45.8345120  56.4840190  36.9787790  45.9802300  55.5868010
  38.0498890  45.2750410  56.3913580  42.6216100  50.6314120  54.4795320
  42.6360640  49.6995080  54.2614230  41.9141200  50.7173880  55.1185090
  42.0550000  52.2731690  51.5735820  42.6992220  52.4791070  52.2509240
  42.4179440  51.5120090  51.1206670  43.3282080  50.2764040  50.2913270
  43.9704310  49.5757200  50.4045440  43.8531430  51.0562480  50.1110160
  45.1019700  51.0758940  53.4949330  45.4375940  51.6625630  54.1727250
  44.1820040  50.9451650  53.7247120  32.6523100  38.8654120  54.2772740
  31.9381620  39.0651040  54.8825350  33.0718140  38.0893690  54.6487540
  32.9395690  52.8534380  55.2639270  33.0486810  51.9129120  55.1234660
  32.2876250  53.1189130  54.6153000  40.9308280  51.1250270  56.6637390
  40.6105150  50.4059510  57.2083080  40.2566640  51.8005340  56.7373450
  41.1063870  44.0116020  52.2512160  41.6049120  44.4861840  52.9164010
  41.2486820  43.0879540  52.4582190  43.5123370  39.3169980  45.6915420
  43.3891150  39.3356110  44.7424930  44.4607930  39.3648920  45.8113820
  48.3130730  40.2283980  53.0940550  47.8104330  40.9689380  53.4334360
  49.1287390  40.6167980  52.7777340  36.0795850  54.7357220  47.8873300
  36.8158330  54.1872680  48.1581870  36.4636770  55.6013230  47.7479290
  35.0854130  53.9203290  57.0758880  35.8866860  54.2415340  57.4894280
  34.5705950  53.5598870  57.7978790  43.9218760  50.0283160  57.0234290
  43.3156920  50.0514760  56.2830040  43.6172870  49.2966200  57.5601540
  45.3519130  53.7563450  55.6343700  46.3040880  53.6721470  55.5843940
  45.2047350  54.4205160  56.3077490  32.8051940  46.4076750  56.0194930
  33.3090960  45.8284030  56.5911160  32.0659360  46.6916980  56.5571300
  39.8589880  47.8147740  55.5530450  39.0935550  48.3832740  55.4685120
  40.0405840  47.5223950  54.6598680  47.0013230  49.5453070  56.1105470
  47.7422700  49.8828830  55.6072930  46.2385910  49.7145130  55.5575240
  34.8375020  44.5506340  56.9145000  34.8780360  44.2520210  57.8230230
  35.6920520  44.9513950  56.7552520  36.7780830  43.1298440  54.8819490
  36.2477290  42.6389390  54.2542830  37.4468900  43.5582640  54.3477420
  45.6758890  47.5967900  54.6460680  46.0899910  47.7512980  55.4951100
  44.7409890  47.7223120  54.8086460  46.1481060  44.9364060  56.6499830
  46.7301830  44.1816380  56.5620310  46.3242830  45.4671500  55.8731310
  37.2653130  40.0960810  54.9616780  37.1710000  39.4781560  54.2367650
  36.6850520  40.8227100  54.7346690  40.0314570  38.6534050  51.9944170
  39.5831870  38.6758310  51.1489720  39.3979770  38.2553070  52.5914470
  40.4374120  47.5488380  52.6156610  40.8562230  48.3921110  52.4432850
  39.5182750  47.6860420  52.3863390  42.7738020  45.2804560  53.9994450
  42.8934230  44.6845700  54.7389290  43.6332020  45.3174250  53.5795750
  38.2881540  53.8541390  53.7314340  37.7502630  54.5787450  53.4123040
  38.5415500  53.3771730  52.9411680  39.5406790  41.8225910  55.2570270
  40.1306480  41.5141760  55.9448090  38.7227030  41.3505660  55.4130170
  44.3600220  41.4391720  55.4903290  43.6715740  40.7773260  55.4253280
  45.0806240  40.9929990  55.9351750  44.9900620  38.0343350  41.5493550
  45.2702910  37.1911250  41.9052970  44.2166350  38.2666460  42.0632300
  36.3095110  40.3235740  39.0084550  36.6121010  40.3303170  38.1003700
  37.0489700  39.9733600  39.5052210  41.1443750  55.0892600  53.9900990
  41.0702450  55.9927740  54.2973360  40.2422590  54.7704500  53.9623060
  39.5280040  39.2670360  39.9940750  39.1802040  38.5894350  39.4143200
  39.7292810  38.8059870  40.8084140  33.0361250  53.2837780  50.0316240
  32.5992240  53.4638580  50.8640390  33.6038930  54.0412400  49.8897960
  48.6723430  52.7854780  54.3193550  48.0725420  52.8447340  53.5757470
  48.8017330  51.8459760  54.4490400  47.3575070  49.5106760  52.4169710
  46.5434910  49.9403920  52.6795500  47.7649270  50.1225170  51.8038760
  49.4200510  47.5654450  39.3169980  49.6949350  48.4733330  39.1889200
  49.2311250  47.5016980  40.2531970  45.8176120  40.5899300  40.6123610
  46.2361000  40.4030280  39.7720270  45.5112180  39.7378350  40.9226540
  33.9061610  46.1810580  50.9308460  34.2734650  46.0937980  51.8104480
  33.3372430  45.4177130  50.8315320  48.7065470  44.6494960  53.9438930
  48.4751560  44.4207710  53.0436880  48.9670020  45.5694510  53.8983820
  33.4577610  43.0919670  54.8366880  32.5633660  43.0586430  55.1760590
  33.9975160  43.2906460  55.6018130  47.1453540  39.8751390  56.7218630
  48.0223720  39.8834790  57.1052630  47.1574380  39.1382230  56.1110980
  34.2725130  38.1161810  39.2827480  34.9953260  38.6570750  39.6008700
  34.5449650  37.8425230  38.4069020  47.8569660  37.5609360  52.5419740
  48.4941880  38.1743500  52.9078930  48.0044550  37.5970020  51.5968970
  50.3994210  39.4523150  39.3242880  51.3243520  39.3204330  39.1161170
  50.3770000  39.5315970  40.2779330  33.7149320  37.5223670  51.9275420
  33.3664140  37.9787490  52.6933600  33.3837020  36.6280800  52.0097850
  35.3213690  50.6943270  56.0928610  35.2783320  50.3236180  56.9743070
  35.4524700  51.6320840  56.2330430  39.0219720  52.2502860  51.6938330
  38.7811080  52.5177420  50.8068850  39.9622360  52.4208590  51.7489190
  41.2274140  38.7135550  55.4494840  41.1663030  39.3057380  56.1990250
  42.1674520  38.6061510  55.3045100  43.8648700  38.3705610  55.0887130
  44.4789110  38.6884900  54.4268210  44.4098260  37.8854200  55.7082990
  50.2823880  54.2697240  52.4948970  49.7882160  54.6666110  51.7776100
  49.6737170  53.6446450  52.8886250  34.3869960  37.0499870  55.2026190
  34.9352950  36.8687920  54.4392300  34.4525270  36.2593980  55.7382500
  35.1601720  53.6405520  53.2126390  34.5662040  53.5090220  53.9516430
  35.1525560  52.8043660  52.7468490  44.6056740  36.9337750  51.4156420
  43.7316580  37.2672860  51.2129350  44.4967490  36.4610930  52.2408290
  45.5128720  39.1408620  52.7998140  45.1842080  38.3260380  52.4199870
  46.4611020  39.0978430  52.6763830  47.9663330  54.9120660  49.7735710
  47.5066300  55.6636470  49.3993730  47.3375790  54.1927130  49.7150510
  34.7913950  51.0063900  52.1634430  34.0648010  50.3869190  52.0960380
  34.8523100  51.4004510  51.2932510  41.1354550  54.1117390  49.7752820
  41.4232360  53.8571690  48.8985830  41.6477770  53.5594750  50.3658390
  42.3531560  37.8507590  50.3549330  41.5703350  38.3253090  50.6346090
  42.0594490  36.9462420  50.2462510  46.9052630  38.5530690  48.3998420
  47.3460720  38.4975790  47.5520020  46.6360220  39.4688700  48.4708600
  48.7691200  38.1845930  46.4107240  48.7079600  37.2407150  46.2638260
  49.5483230  38.2926020  46.9560700  44.7410760  36.9336790  47.1048430
  45.3440130  37.5057000  47.5796950  44.0003750  37.4976230  46.8822330
  47.8845360  37.3358350  42.3788710  48.0795990  38.2341800  42.6456140
  47.0975230  37.1045430  42.8721660  41.2026910  55.0333490  57.1421020
  42.1294220  54.7977760  57.1856980  41.1877340  55.8605490  56.6607050
  38.3890520  37.6978240  56.9062900  38.1074790  38.2011840  56.1423720
  38.7710220  36.8999990  56.5405030  44.9905980  37.1131820  57.4843370
  44.8771430  37.4326430  58.3794890  45.8075720  37.5144330  57.1880650
  47.7704470  54.2603350  56.9662060  48.5629790  53.7652580  56.7588020
  48.0637620  54.9393490  57.5737670  43.8964130  45.1324290  27.8478110
  43.8158180  44.2178900  27.5769820  43.4828550  45.6291360  27.1417820
  46.0489600  51.3163500  28.5086510  45.5871130  50.5450740  28.8373680
  46.8615150  51.3429570  29.0138960  34.4539950  42.1825010  24.3905530
  33.5656650  42.5240980  24.2885410  34.7381140  41.9825330  23.4986360
  32.4172960  44.7830660  30.2745230  32.9889070  44.0152860  30.2748870
  32.4174500  45.0819420  29.3651840  33.6597830  40.1915020  32.0614160
  33.4800670  39.2940770  32.3416920  33.2577910  40.7386890  32.7361110
  42.4996330  42.3930880  29.9626470  42.8761150  41.5202760  29.8500140
  42.4015840  42.7289580  29.0716910  36.6301340  40.7656510  25.4243910
  36.7368090  41.6660240  25.7312670  35.7193700  40.7174480  25.1338560
  46.2820450  39.8881320  26.8954810  47.1030070  39.3977890  26.9380290
  46.3154530  40.4778980  27.6486650  34.2784500  42.6875520  30.6696500
  34.9594610  42.9513890  31.2883900  33.9632550  41.8476390  31.0034510
  38.4709070  43.7342880  29.7569090  38.9787290  44.2323850  30.3974110
  39.0022310  42.9578080  29.5808450  50.5720000  41.9048070  33.4598440
  49.8672170  42.2929780  32.9413550  50.8377920  42.5998360  34.0619370
  36.7545170  38.3741440  34.0232510  36.7563610  38.8913830  33.2178410
  35.9249480  37.8971620  34.0002440  43.1416260  48.4860750  25.5222410
  42.5233530  48.9510200  24.9585130  43.6539510  49.1788230  25.9391920
  46.5181930  41.8281700  29.6682350  45.8137500  42.1166590  30.2485460
  46.8794090  42.6381810  29.3081910  36.4360500  40.0851400  32.0302960
  36.7777310  40.9293450  31.7356830  35.4976310  40.2335140  32.1468300
  32.5099460  49.1717280  22.8962040  32.1327440  49.6604380  22.1646940
  32.7672530  49.8442560  23.5268570  48.1344710  51.4456830  31.9309830
  47.4508230  52.1155940  31.9226500  48.6739000  51.6437480  31.1654690
  49.5868850  41.2736490  30.0591560  48.6393760  41.3075470  30.1906990
  49.9118840  42.0875440  30.4440920  40.1188390  37.5733670  28.3547550
  40.4263370  37.0180560  27.6383050  39.1889090  37.7078130  28.1720540
  45.6703450  53.2900960  30.6455010  45.6830610  52.8863250  29.7777270
  45.1178670  54.0648250  30.5416440  46.9648870  50.0117180  25.7345180
  46.8545200  49.0691510  25.8594600  46.9617120  50.3732820  26.6207940
  42.5069150  45.6382500  25.0907670  41.5798430  45.5719880  25.3196140
  42.6593970  46.5762630  24.9762910  42.4938230  41.9099500  22.0874830
  41.5541900  42.0713460  22.1727290  42.8121490  42.6285180  21.5410820
  49.0150990  46.5918020  32.0653860  48.1869620  46.6611110  31.5903990
  49.6101470  47.1772330  31.5969690  46.5366440  47.2002800  25.5942920
  45.9178860  46.8622350  24.9469220  46.5190890  46.5562560  26.3022110
  38.1125790  46.1647240  27.8727400  37.7082790  45.4524490  27.3773300
  38.1988910  45.8200480  28.7615440  36.8254410  42.9390450  31.6526440
  37.3769000  43.0485790  30.8779690  37.3397920  43.3128050  32.3681670
  46.6693100  53.4246670  33.6989710  46.1923660  54.2318860  33.5062320
  45.9854890  52.7725000  33.8515920  44.7131140  46.4389610  22.6015670
  45.1524420  45.6012040  22.4553490  45.4259560  47.0719010  22.6879810
  42.8226520  51.3785680  26.5696910  43.2622430  52.1210010  26.1552300
  42.7613410  51.6212250  27.4935870  48.2948280  37.6932420  20.9156710
  47.9820940  37.7859250  21.8155780  49.0560750  38.2713450  20.8654140
  34.8130420  45.0592220  25.3734050  34.6928020  45.7854310  24.7615320
  34.5031310  44.2895130  24.8961960  32.4515790  48.2307360  31.1802690
  32.5296210  48.3656130  30.2358410  33.0657470  47.5223250  31.3730810
  33.6963420  49.9307550  27.5908870  33.2891500  50.0722140  26.7362470
  34.5876430  49.6467710  27.3880080  45.4896700  54.3654800  23.9259920
  45.3297840  54.0757740  24.8241750  45.3243410  53.5894930  23.3905150
  37.9685080  54.1453330  25.7031540  37.7927560  53.2288870  25.4899340
  37.1140820  54.5040620  25.9429340  45.1922830  51.8742360  22.4857920
  44.4987990  51.8719650  21.8260200  45.9345690  51.4501680  22.0552090
  44.7572760  53.5005070  26.5606410  45.2129710  52.7194450  26.8745030
  45.0965280  54.2111890  27.1047590  49.5049570  42.4303920  36.8930850
  48.8893840  42.9383590  36.3646310  49.1845990  41.5302250  36.8356790
  32.5075310  49.2721530  33.7197150  32.6706350  48.8026890  32.9016520
  32.9727760  48.7645090  34.3845990  37.2794080  38.4027290  28.7557720
  36.8362230  39.1836830  28.4242240  37.8379070  38.7257180  29.4628660
  41.5663890  41.2695810  34.3593040  41.1043260  41.4778830  35.1712980
  41.1642000  40.4555160  34.0563710  40.3952900  38.0237990  23.6363550
  39.7707080  38.0197860  24.3616860  40.3083020  37.1568950  23.2399520
  39.3169980  38.9474620  30.6147320  39.6142310  39.8537450  30.5339340
  39.8655540  38.4593400  30.0006890  37.0708300  43.5260860  26.4838970
  36.8449220  43.3098030  27.3885590  36.2900830  43.9589320  26.1384940
  44.3006060  43.5324230  25.0829620  43.7014950  44.2560030  24.8993240
  44.8485670  43.4701010  24.3006070  42.9070930  42.1687770  27.1132900
  43.3000500  42.4859970  26.3001590  43.2687780  41.2899650  27.2277420
  34.6418050  40.8360110  35.3033020  34.2481440  41.6835320  35.5105800
  33.9536450  40.1986480  35.4941660  41.2163100  40.9195080  38.3729760
  40.5261420  40.7267280  39.0075850  41.9595400  41.2029720  38.9054060
  31.9435100  38.7588570  29.3363100  31.6548150  39.3291430  30.0488080
  32.6880860  38.2793020  29.6994330  32.1305330  42.7008690  20.5465820
  32.0480000  43.6439450  20.6880810  31.7788390  42.5583600  19.6678170
  39.9303460  41.4347720  29.6136170  39.9339520  40.9937670  28.7640710
  40.8254580  41.7565050  29.7207990  35.7805840  41.3174210  28.5730380
  35.4405890  41.7949440  29.3297430  35.0183160  40.8639330  28.2131480
  39.9923610  42.4359800  22.6042930  40.1136430  42.3946280  23.5528750
  39.6072120  43.2983950  22.4489660  43.9551980  40.2127200  30.6206620
  43.9724720  40.6635850  31.4648470  43.7067560  39.3132840  30.8340060
  39.0045110  44.7460940  22.0026230  38.4362010  44.2979190  21.3762140
  39.7134110  45.1053720  21.4691380  47.3822730  37.6259380  36.4593000
  47.7068500  36.8949040  36.9850980  47.4179240  37.3073020  35.5573990
  33.0951920  40.2393190  27.4895050  32.8098840  39.8748860  28.3273670
  33.0330780  39.5073650  26.8758190  38.0210800  44.5358140  33.6785790
  37.7167870  45.4150120  33.9036150  38.9757260  44.5957930  33.7143230
  36.5492590  48.7419130  24.2752640  35.7754850  48.2016750  24.1151360
  37.2787220  48.2225740  23.9370400  47.3080570  47.7384490  30.0679030
  48.0279690  48.2339780  29.6775140  47.1062390  47.0602380  29.4232900
  42.7690510  39.1322450  24.2108420  41.9555120  38.6335620  24.1353730
  42.5752460  39.9720700  23.7944770  45.4838900  43.5042100  22.5070580
  46.3718520  43.8159330  22.3321920  45.4543990  42.6314350  22.1151160
  36.5929990  48.4099510  27.9131450  37.1108660  47.6067770  27.8588340
  36.1414010  48.3478650  28.7548280  41.4799490  49.6765790  23.1858750
  41.8215190  50.4208020  22.6902070  40.6512200  49.9896910  23.5483580
  34.0774530  45.3760880  34.8257150  33.7189470  46.0414730  35.4130490
  33.7829090  44.5444430  35.1969770  47.7553170  44.8153940  21.9750440
  47.6716890  45.2468160  21.1246880  48.4747360  45.2752290  22.4077260
  48.8327310  47.2721460  35.0520410  48.1075500  47.8650240  34.8549800
  49.3602770  47.2645000  34.2533780  48.7840420  51.6696200  24.7032570
  48.1416580  51.0151820  24.9776290  48.3971080  52.0751290  23.9273240
  40.4490180  49.7579320  25.9574670  41.1361310  50.3048530  26.3382260
  39.6622600  50.3020050  25.9924280  32.5882580  45.3752140  21.4491750
  33.4577430  45.6576940  21.7327670  32.0972900  46.1888010  21.3340560
  39.7517390  46.7625350  25.5700030  40.2080170  47.5730600  25.7960220
  39.4005600  46.4448490  26.4018520  35.6529170  37.1063000  26.0422550
  35.5243800  37.0980900  26.9907470  34.8291190  37.4446090  25.6913560
  47.1737800  50.5612660  21.2408920  46.9475380  49.8443100  21.8333560
  46.7834000  50.3125100  20.4030670  45.1019700  51.0758940  34.7205840
  45.4375940  51.6625630  35.3983760  44.1820040  50.9451650  34.9503630
  32.9553830  54.5879520  22.0153380  33.3151470  55.1868860  21.3610650
  32.8146170  55.1339410  22.7888410  32.6523100  38.8654120  35.5029250
  31.9381620  39.0651040  36.1081860  33.0718140  38.0893690  35.8744050
  46.7554050  48.4784600  22.9023080  46.4675750  48.9397290  23.6900960
  47.5506220  48.0182370  23.1707300  32.9395690  52.8534380  36.4895780
  33.0486810  51.9129120  36.3491170  32.2876250  53.1189130  35.8409510
  38.9722450  51.9710720  22.8327050  38.9632550  52.7040410  22.2171560
  38.0520810  51.7242300  22.9254010  34.5729090  47.1925610  23.5773810
  33.9657040  47.9324510  23.5869110  35.0478440  47.2824970  22.7512010
  44.1461880  41.3576430  33.2530700  44.5142700  40.5371640  33.5810270
  43.2860080  41.4178320  33.6686350  47.5123910  40.3133370  24.0618260
  46.8837070  40.4179040  23.3476490  47.0175830  40.5330150  24.8512140
  41.9582050  52.0338960  21.4952240  42.0594030  51.8302950  20.5654220
  41.0583790  51.7797240  21.7000020  39.4807940  42.5919320  25.4776140
  38.7724090  43.0605660  25.9189750  39.7652420  41.9341330  26.1121330
  43.5123370  39.3169980  26.9171930  43.3891150  39.3356110  25.9681440
  44.4607930  39.3648920  27.0370330  37.6842960  40.9004400  22.8526850
  38.5333490  41.3374550  22.7867040  37.3174230  41.2124660  23.6798910
  48.3130730  40.2283980  34.3197060  47.8104330  40.9689380  34.6590870
  49.1287390  40.6167980  34.0033850  46.6052740  45.4717160  27.7658420
  45.6642880  45.4867390  27.9406110  46.9196810  44.6853120  28.2118720
  36.5834380  47.1536760  21.3262380  37.3497650  47.0418120  21.8887810
  36.6609070  46.4574730  20.6739150  35.2781140  44.5861830  22.0095270
  35.3584730  43.6389340  22.1212670  36.1700890  44.9168710  22.1155930
  48.6078320  52.6426010  29.4412680  48.7325740  53.4657180  29.9136490
  49.4743880  52.4316740  29.0936830  32.9641330  50.8030790  24.9871320
  32.0381110  51.0451930  24.9776730  33.4297760  51.6305050  24.8656070
  39.1898160  53.9087530  20.9355380  39.9826770  54.1976360  20.4837170
  38.6702510  53.4779700  20.2567860  48.2428330  53.1357660  22.3592120
  47.9569840  52.7222800  21.5446300  48.0447880  54.0645370  22.2392640
  39.7075560  49.1290940  20.7997730  39.6026200  48.5143290  21.5259110
  39.5399780  48.6056830  20.0160740  42.9478290  48.1910970  21.4039720
  42.3988390  48.6380270  22.0482460  43.5697550  47.6860220  21.9277390
  47.0013230  49.5453070  37.3361980  47.7422700  49.8828830  36.8329440
  46.2385910  49.7145130  36.7831750  38.6153410  47.1501890  23.3005020
  39.0369830  46.9841760  24.1436410  38.7404250  46.3402120  22.8060160
  36.7780830  43.1298440  36.1076000  36.2477290  42.6389390  35.4799340
  37.4468900  43.5582640  35.5733930  41.1281050  46.1739500  20.5482120
  41.6486710  45.4588520  20.1823270  41.7749450  46.8125370  20.8482630
  37.2653130  40.0960810  36.1873290  37.1710000  39.4781560  35.4624160
  36.6850520  40.8227100  35.9603200  40.0314570  38.6534050  33.2200680
  39.5831870  38.6758310  32.3746230  39.3979770  38.2553070  33.8170980
  37.5112310  43.2235120  20.2463180  37.3101370  42.3602480  20.6076520
  37.3404360  43.1368480  19.3084780  39.5406790  41.8225910  36.4826780
  40.1306480  41.5141760  37.1704600  38.7227030  41.3505660  36.6386680
  44.9900620  38.0343350  22.7750060  45.2702910  37.1911250  23.1309480
  44.2166350  38.2666460  23.2888810  36.3095110  40.3235740  20.2341060
  36.6121010  40.3303170  19.3260210  37.0489700  39.9733600  20.7308720
  39.5280040  39.2670360  21.2197260  39.1802040  38.5894350  20.6399710
  39.7292810  38.8059870  22.0340650  41.6929080  54.2551110  22.8383860
  42.5879870  54.5936080  22.8602620  41.7246710  53.5330520  22.2108140
  35.3325240  49.6278160  21.0670860  35.7700110  50.1707830  21.7228440
  35.8172970  48.8025110  21.0767200  32.5471040  52.4167190  28.5191120
  32.8774050  51.5488250  28.2869760  32.9762040  52.6225710  29.3496080
  37.1432960  50.7476200  26.1793090  36.8428500  50.6241170  27.0797000
  37.0370450  49.8884790  25.7708820  48.6723430  52.7854780  35.5450060
  48.0725420  52.8447340  34.8013980  48.8017330  51.8459760  35.6746910
  49.9124880  50.5272600  20.8819770  49.0817840  50.5949250  21.3527000
  50.0896710  51.4176720  20.5786630  49.3681340  47.2720080  23.3853970
  50.1300250  47.8416730  23.4913660  49.3835710  46.7047280  24.1562280
  32.8685680  45.7958010  27.6161630  32.2134520  45.5269650  26.9721330
  33.7063630  45.6862490  27.1663610  50.3741310  48.1270180  28.2295900
  50.7450140  47.3437500  27.8231870  51.0143240  48.8159280  28.0513200
  47.3575070  49.5106760  33.6426220  46.5434910  49.9403920  33.9052010
  47.7649270  50.1225170  33.0295270  49.4200510  47.5654450  20.5426490
  49.6949350  48.4733330  20.4145710  49.2311250  47.5016980  21.4788480
  45.8176120  40.5899300  21.8380120  46.2361000  40.4030280  20.9976780
  45.5112180  39.7378350  22.1483050  49.3165850  45.5023440  25.5355920
  48.9409450  44.7351370  25.1037210  48.5868970  45.8846140  26.0230850
  48.7065470  44.6494960  35.1695440  48.4751560  44.4207710  34.2693390
  48.9670020  45.5694510  35.1240330  33.4577610  43.0919670  36.0623390
  32.5633660  43.0586430  36.4017100  33.9975160  43.2906460  36.8274640
  47.1453540  39.8751390  37.9475140  48.0223720  39.8834790  38.3309140
  47.1574380  39.1382230  37.3367490  32.0823760  43.0056940  23.5586960
  31.1787840  43.2687140  23.3838620  32.5664380  43.2768110  22.7786920
  48.5916810  43.7280930  28.8363160  49.1154290  43.2343580  28.2053330
  49.1776230  43.8631290  29.5810730  48.7706530  43.8120800  32.3582710
  47.8209240  43.7784340  32.4727700  48.9519540  44.7220910  32.1232480
  34.6250970  42.0622480  21.4681340  35.3342670  41.6405700  20.9828620
  33.9090910  42.1297710  20.8364690  34.2725130  38.1161810  20.5083990
  34.9953260  38.6570750  20.8265210  34.5449650  37.8425230  19.6325530
  48.0816780  42.9854280  24.7755570  48.5775900  42.7525150  25.5604450
  47.8832850  42.1466120  24.3593210  33.9617320  37.3668000  30.4106610
  34.6093510  36.8165380  29.9701770  34.3819160  37.6211150  31.2322420
  49.5103940  41.6215230  27.3093250  49.4003220  41.4671270  28.2475520
  50.2711530  41.0936170  27.0668660  47.8569660  37.5609360  33.7676250
  48.4941880  38.1743500  34.1335440  48.0044550  37.5970020  32.8225480
  50.3994210  39.4523150  20.5499390  51.3243520  39.3204330  20.3417680
  50.3770000  39.5315970  21.5035840  50.4732700  40.2233810  23.1756100
  49.6784200  40.1578930  23.7049010  50.6775980  41.1584450  23.1641450
  47.4151120  54.2625360  27.1694490  48.0110190  53.9409930  26.4928910
  47.6729270  53.7897180  27.9607760  33.7149320  37.5223670  33.1531930
  33.3664140  37.9787490  33.9190110  33.3837020  36.6280800  33.2354360
  41.2274140  38.7135550  36.6751350  41.1663030  39.3057380  37.4246760
  42.1674520  38.6061510  36.5301610  43.8648700  38.3705610  36.3143640
  44.4789110  38.6884900  35.6524720  44.4098260  37.8854200  36.9339500
  50.2823880  54.2697240  33.7205480  49.7882160  54.6666110  33.0032610
  49.6737170  53.6446450  34.1142760  34.3869960  37.0499870  36.4282700
  34.9352950  36.8687920  35.6648810  34.4525270  36.2593980  36.9639010
  44.6056740  36.9337750  32.6412930  43.7316580  37.2672860  32.4385860
  44.4967490  36.4610930  33.4664800  45.5128720  39.1408620  34.0254650
  45.1842080  38.3260380  33.6456380  46.4611020  39.0978430  33.9020340
  47.9663330  54.9120660  30.9992220  47.5066300  55.6636470  30.6250240
  47.3375790  54.1927130  30.9407020  42.3531560  37.8507590  31.5805840
  41.5703350  38.3253090  31.8602600  42.0594490  36.9462420  31.4719020
  46.9052630  38.5530690  29.6254930  47.3460720  38.4975790  28.7776530
  46.6360220  39.4688700  29.6965110  48.7691200  38.1845930  27.6363750
  48.7079600  37.2407150  27.4894770  49.5483230  38.2926020  28.1817210
  33.0743950  54.3238290  26.5987700  32.9065990  53.6908970  27.2969590
  32.2078460  54.5297690  26.2481890  33.6971970  38.1555070  24.1019560
  34.4551330  38.2683950  23.5283590  33.2349140  38.9924270  24.0562990
  40.2385780  40.2694340  27.0921870  39.4260290  39.8951230  26.7517750
  40.7427420  39.5139420  27.3943060  44.7410760  36.9336790  28.3304940
  45.3440130  37.5057000  28.8053460  44.0003750  37.4976230  28.1078840
  47.8845360  37.3358350  23.6045220  48.0795990  38.2341800  23.8712650
  47.0975230  37.1045430  24.0978170  34.6806650  53.0171520  24.0437840
  34.1554270  53.3979550  23.3399800  34.6051230  53.6422290  24.7647550
  36.0697120  38.6819120  22.6421530  36.5989880  37.8948920  22.5129480
  36.7025440  39.3610310  22.8757060  38.2634960  38.4194260  25.6966920
  37.6337700  37.7181570  25.8637050  37.7240100  39.1798390  25.4800080
  49.4371970  54.5759060  25.3651780  49.6124160  53.8896800  24.7212700
  48.7393540  55.1006110  24.9728450  38.3890520  37.6978240  38.1319410
  38.1074790  38.2011840  37.3680230  38.7710220  36.8999990  37.7661540
  37.2799620  54.9653900  22.9187090  38.0118440  54.6813180  22.3710980
  37.5393290  54.7267180  23.8086470  36.4414410  51.0818630  22.9233420
  35.8123290  51.5503730  23.4719250  36.5562240  50.2367850  23.3579610
  44.9905980  37.1131820  38.7099880  44.8771430  37.4326430  39.6051400
  45.8075720  37.5144330  38.4137160  47.7704470  54.2603350  38.1918570
  48.5629790  53.7652580  37.9844530  48.0637620  54.9393490  38.7994180
  43.8964130  45.1324290   9.0734620  43.8158180  44.2178900   8.8026330
  43.4828550  45.6291360   8.3674330  42.0282170  46.9103310  10.9543890
  41.2524270  46.4303750  11.2442460  42.6795100  46.2308960  10.7800050
  36.0448000  47.2223120  11.8319650  35.2132880  46.9671830  12.2316160
  36.6528980  47.2933890  12.5677570  46.0489600  51.3163500   9.7343020
  45.5871130  50.5450740  10.0630190  46.8615150  51.3429570  10.2395470
  36.0249260  51.2563210  12.0277670  36.3277300  50.3660950  11.8487890
  36.7692850  51.8133430  11.7999920  34.4539950  42.1825010   5.6162040
  33.5656650  42.5240980   5.5141920  34.7381140  41.9825330   4.7242870
  32.4172960  44.7830660  11.5001740  32.9889070  44.0152860  11.5005380
  32.4174500  45.0819420  10.5908350  42.2752910  53.6021510   9.3547010
  41.6564350  54.0579010   8.7841450  43.1304690  53.7572970   8.9536710
  41.4691160  49.5860500  10.9614050  41.3999440  48.6450440  10.8003180
  42.2311020  49.6761910  11.5336620  33.6597830  40.1915020  13.2870670
  33.4800670  39.2940770  13.5673430  33.2577910  40.7386890  13.9617620
  42.4996330  42.3930880  11.1882980  42.8761150  41.5202760  11.0756650
  42.4015840  42.7289580  10.2973420  36.6301340  40.7656510   6.6500420
  36.7368090  41.6660240   6.9569180  35.7193700  40.7174480   6.3595070
  46.2820450  39.8881320   8.1211320  47.1030070  39.3977890   8.1636800
  46.3154530  40.4778980   8.8743160  34.2784500  42.6875520  11.8953010
  34.9594610  42.9513890  12.5140410  33.9632550  41.8476390  12.2291020
  38.4709070  43.7342880  10.9825600  38.9787290  44.2323850  11.6230620
  39.0022310  42.9578080  10.8064960  50.5720000  41.9048070  14.6854950
  49.8672170  42.2929780  14.1670060  50.8377920  42.5998360  15.2875880
  36.7545170  38.3741440  15.2489020  36.7563610  38.8913830  14.4434920
  35.9249480  37.8971620  15.2258950  43.1416260  48.4860750   6.7478920
  42.5233530  48.9510200   6.1841640  43.6539510  49.1788230   7.1648430
  38.0048020  48.0136620  13.4262520  37.6717400  48.6405540  14.0683590
  38.1814700  48.5398500  12.6464190  46.5181930  41.8281700  10.8938860
  45.8137500  42.1166590  11.4741970  46.8794090  42.6381810  10.5338420
  36.4360500  40.0851400  13.2559470  36.7777310  40.9293450  12.9613340
  35.4976310  40.2335140  13.3724810  37.2167120  49.9817420  15.2411700
  37.8341120  50.6568500  14.9596150  36.3560240  50.3905400  15.1499200
  32.5099460  49.1717280   4.1218550  32.1327440  49.6604380   3.3903450
  32.7672530  49.8442560   4.7525080  48.1344710  51.4456830  13.1566340
  47.4508230  52.1155940  13.1483010  48.6739000  51.6437480  12.3911200
  49.5868850  41.2736490  11.2848070  48.6393760  41.3075470  11.4163500
  49.9118840  42.0875440  11.6697430  40.1188390  37.5733670   9.5804060
  40.4263370  37.0180560   8.8639560  39.1889090  37.7078130   9.3977050
  45.6703450  53.2900960  11.8711520  45.6830610  52.8863250  11.0033780
  45.1178670  54.0648250  11.7672950  46.9648870  50.0117180   6.9601690
  46.8545200  49.0691510   7.0851110  46.9617120  50.3732820   7.8464450
  45.0688890  48.1930800  13.1994130  45.4857680  47.9790910  12.3647590
  45.7928710  48.4503590  13.7702750  42.5069150  45.6382500   6.3164180
  41.5798430  45.5719880   6.5452650  42.6593970  46.5762630   6.2019420
  42.4938230  41.9099500   3.3131340  41.5541900  42.0713460   3.3983800
  42.8121490  42.6285180   2.7667330  49.0150990  46.5918020  13.2910370
  48.1869620  46.6611110  12.8160500  49.6101470  47.1772330  12.8226200
  46.5366440  47.2002800   6.8199430  45.9178860  46.8622350   6.1725730
  46.5190890  46.5562560   7.5278620  45.9793000  43.3787340  14.2365240
  45.5664180  44.2041050  14.4905230  45.2468950  42.7932380  14.0441600
  38.1125790  46.1647240   9.0983910  37.7082790  45.4524490   8.6029810
  38.1988910  45.8200480   9.9871950  38.5807490  49.8514800  11.2623120
  38.2835780  49.2460270  10.5830900  39.5307310  49.8892110  11.1512480
  36.8254410  42.9390450  12.8782950  37.3769000  43.0485790  12.1036200
  37.3397920  43.3128050  13.5938180  46.6693100  53.4246670  14.9246220
  46.1923660  54.2318860  14.7318830  45.9854890  52.7725000  15.0772430
  37.6725920  49.5896490  17.9130920  36.7754450  49.8136460  18.1604320
  37.6978790  49.7131430  16.9642320  44.7131140  46.4389610   3.8272180
  45.1524420  45.6012040   3.6810000  45.4259560  47.0719010   3.9136320
  36.4997140  46.4609810  16.4888290  36.3604910  47.3332610  16.8575690
  35.6178500  46.1182620  16.3436230  42.8226520  51.3785680   7.7953420
  43.2622430  52.1210010   7.3808810  42.7613410  51.6212250   8.7192380
  38.2977490  52.4031510  18.6973440  38.2692920  52.8074460  17.8301870
  38.1342460  51.4741870  18.5345040  48.2948280  37.6932420   2.1413220
  47.9820940  37.7859250   3.0412290  49.0560750  38.2713450   2.0910650
  34.8130420  45.0592220   6.5990560  34.6928020  45.7854310   5.9871830
  34.5031310  44.2895130   6.1218470  50.2492310  53.1858610  19.9937610
  50.7252030  53.6641500  20.6726690  50.8699470  53.1176100  19.2683110
  32.4515790  48.2307360  12.4059200  32.5296210  48.3656130  11.4614920
  33.0657470  47.5223250  12.5987320  33.6963420  49.9307550   8.8165380
  33.2891500  50.0722140   7.9618980  34.5876430  49.6467710   8.6136590
  49.6525560  50.3771460  17.1537620  49.7788620  50.1383340  16.2354800
  49.6946940  49.5456000  17.6259700  43.5142300  54.0799460  15.7232430
  44.0286970  53.9907470  16.5254860  42.6711380  54.4259160  16.0160340
  45.4896700  54.3654800   5.1516430  45.3297840  54.0757740   6.0498260
  45.3243410  53.5894930   4.6161660  37.9685080  54.1453330   6.9288050
  37.7927560  53.2288870   6.7155850  37.1140820  54.5040620   7.1685850
  45.1922830  51.8742360   3.7114430  44.4987990  51.8719650   3.0516710
  45.9345690  51.4501680   3.2808600  44.7572760  53.5005070   7.7862920
  45.2129710  52.7194450   8.1001540  45.0965280  54.2111890   8.3304100
  49.5049570  42.4303920  18.1187360  48.8893840  42.9383590  17.5902820
  49.1845990  41.5302250  18.0613300  32.5075310  49.2721530  14.9453660
  32.6706350  48.8026890  14.1273030  32.9727760  48.7645090  15.6102500
  37.2794080  38.4027290   9.9814230  36.8362230  39.1836830   9.6498750
  37.8379070  38.7257180  10.6885170  41.5663890  41.2695810  15.5849550
  41.1043260  41.4778830  16.3969490  41.1642000  40.4555160  15.2820220
  46.5668400  42.4904760  16.7146210  45.7161990  42.1910510  17.0355280
  46.4070190  42.7346770  15.8030030  43.6618110  43.9906510  18.8145000
  43.9871520  43.1570260  18.4747230  44.4498440  44.5135030  18.9623330
  40.3952900  38.0237990   4.8620060  39.7707080  38.0197860   5.5873370
  40.3083020  37.1568950   4.4656030  39.3169980  38.9474620  11.8403830
  39.6142310  39.8537450  11.7595850  39.8655540  38.4593400  11.2263400
  37.0708300  43.5260860   7.7095480  36.8449220  43.3098030   8.6142100
  36.2900830  43.9589320   7.3641450  44.3006060  43.5324230   6.3086130
  43.7014950  44.2560030   6.1249750  44.8485670  43.4701010   5.5262580
  39.5107510  44.4246440  18.3755750  39.4151110  43.4841170  18.2256150
  40.3539490  44.6461510  17.9803820  42.9070930  42.1687770   8.3389410
  43.3000500  42.4859970   7.5258100  43.2687780  41.2899650   8.4533930
  34.6418050  40.8360110  16.5289530  34.2481440  41.6835320  16.7362310
  33.9536450  40.1986480  16.7198170  41.2163100  40.9195080  19.5986270
  40.5261420  40.7267280  20.2332360  41.9595400  41.2029720  20.1310570
  31.9435100  38.7588570  10.5619610  31.6548150  39.3291430  11.2744590
  32.6880860  38.2793020  10.9250840  43.4926070  44.7593520  12.4340190
  42.7607190  45.2680330  12.7830290  43.0950410  43.9423500  12.1328970
  39.9303460  41.4347720  10.8392680  39.9339520  40.9937670   9.9897220
  40.8254580  41.7565050  10.9464500  35.7805840  41.3174210   9.7986890
  35.4405890  41.7949440  10.5553940  35.0183160  40.8639330   9.4387990
  39.9923610  42.4359800   3.8299440  40.1136430  42.3946280   4.7785260
  39.6072120  43.2983950   3.6746170  43.9551980  40.2127200  11.8463130
  43.9724720  40.6635850  12.6904980  43.7067560  39.3132840  12.0596570
  39.0045110  44.7460940   3.2282740  38.4362010  44.2979190   2.6018650
  39.7134110  45.1053720   2.6947890  47.3822730  37.6259380  17.6849510
  47.7068500  36.8949040  18.2107490  47.4179240  37.3073020  16.7830500
  34.0814290  48.6472960  17.1049470  33.6969080  48.0066630  17.7032430
  34.3926480  49.3509080  17.6744200  40.2311430  45.4949500  12.5858090
  40.5981560  45.0208070  13.3319430  40.0416490  46.3691070  12.9266430
  33.0951920  40.2393190   8.7151560  32.8098840  39.8748860   9.5530180
  33.0330780  39.5073650   8.1014700  38.0210800  44.5358140  14.9042300
  37.7167870  45.4150120  15.1292660  38.9757260  44.5957930  14.9399740
  36.5492590  48.7419130   5.5009150  35.7754850  48.2016750   5.3407870
  37.2787220  48.2225740   5.1626910  47.3080570  47.7384490  11.2935540
  48.0279690  48.2339780  10.9031650  47.1062390  47.0602380  10.6489410
  42.7690510  39.1322450   5.4364930  41.9555120  38.6335620   5.3610240
  42.5752460  39.9720700   5.0201280  42.6899370  47.8093550  17.1804540
  42.6236680  46.8889220  16.9262130  42.0604510  47.9068990  17.8949180
  45.4838900  43.5042100   3.7327090  46.3718520  43.8159330   3.5578430
  45.4543990  42.6314350   3.3407670  36.5929990  48.4099510   9.1387960
  37.1108660  47.6067770   9.0844850  36.1414010  48.3478650   9.9804790
  41.4799490  49.6765790   4.4115260  41.8215190  50.4208020   3.9158580
  40.6512200  49.9896910   4.7740090  34.0774530  45.3760880  16.0513660
  33.7189470  46.0414730  16.6387000  33.7829090  44.5444430  16.4226280
  37.2787650  45.8345120  18.9353210  36.9787790  45.9802300  18.0381030
  38.0498890  45.2750410  18.8426600  42.6216100  50.6314120  16.9308340
  42.6360640  49.6995080  16.7127250  41.9141200  50.7173880  17.5698110
  47.7553170  44.8153940   3.2006950  47.6716890  45.2468160   2.3503390
  48.4747360  45.2752290   3.6333770  48.8327310  47.2721460  16.2776920
  48.1075500  47.8650240  16.0806310  49.3602770  47.2645000  15.4790290
  48.7840420  51.6696200   5.9289080  48.1416580  51.0151820   6.2032800
  48.3971080  52.0751290   5.1529750  44.3626900  48.9981630   9.7760770
  44.7150720  48.4009760   9.1162140  43.4789230  48.6725860   9.9469020
  40.4490180  49.7579320   7.1831180  41.1361310  50.3048530   7.5638770
  39.6622600  50.3020050   7.2180790  32.5882580  45.3752140   2.6748260
  33.4577430  45.6576940   2.9584180  32.0972900  46.1888010   2.5597070
  39.7517390  46.7625350   6.7956540  40.2080170  47.5730600   7.0216730
  39.4005600  46.4448490   7.6275030  42.0550000  52.2731690  14.0248840
  42.6992220  52.4791070  14.7022260  42.4179440  51.5120090  13.5719690
  35.6529170  37.1063000   7.2679060  35.5243800  37.0980900   8.2163980
  34.8291190  37.4446090   6.9170070  43.3282080  50.2764040  12.7426290
  43.9704310  49.5757200  12.8558460  43.8531430  51.0562480  12.5623180
  47.1737800  50.5612660   2.4665430  46.9475380  49.8443100   3.0590070
  46.7834000  50.3125100   1.6287180  45.1019700  51.0758940  15.9462350
  45.4375940  51.6625630  16.6240270  44.1820040  50.9451650  16.1760140
  32.9553830  54.5879520   3.2409890  33.3151470  55.1868860   2.5867160
  32.8146170  55.1339410   4.0144920  32.6523100  38.8654120  16.7285760
  31.9381620  39.0651040  17.3338370  33.0718140  38.0893690  17.1000560
  46.7554050  48.4784600   4.1279590  46.4675750  48.9397290   4.9157470
  47.5506220  48.0182370   4.3963810  32.9395690  52.8534380  17.7152290
  33.0486810  51.9129120  17.5747680  32.2876250  53.1189130  17.0666020
  40.9308280  51.1250270  19.1150410  40.6105150  50.4059510  19.6596100
  40.2566640  51.8005340  19.1886470  38.9722450  51.9710720   4.0583560
  38.9632550  52.7040410   3.4428070  38.0520810  51.7242300   4.1510520
  34.5729090  47.1925610   4.8030320  33.9657040  47.9324510   4.8125620
  35.0478440  47.2824970   3.9768520  44.1461880  41.3576430  14.4787210
  44.5142700  40.5371640  14.8066780  43.2860080  41.4178320  14.8942860
  47.5123910  40.3133370   5.2874770  46.8837070  40.4179040   4.5733000
  47.0175830  40.5330150   6.0768650  41.9582050  52.0338960   2.7208750
  42.0594030  51.8302950   1.7910730  41.0583790  51.7797240   2.9256530
  39.4807940  42.5919320   6.7032650  38.7724090  43.0605660   7.1446260
  39.7652420  41.9341330   7.3377840  41.1063870  44.0116020  14.7025180
  41.6049120  44.4861840  15.3677030  41.2486820  43.0879540  14.9095210
  43.5123370  39.3169980   8.1428440  43.3891150  39.3356110   7.1937950
  44.4607930  39.3648920   8.2626840  40.6000160  54.5525280   7.4156420
  40.8541660  54.5146670   6.4935790  39.6512640  54.4258610   7.4084670
  37.6842960  40.9004400   4.0783360  38.5333490  41.3374550   4.0123550
  37.3174230  41.2124660   4.9055420  48.3130730  40.2283980  15.5453570
  47.8104330  40.9689380  15.8847380  49.1287390  40.6167980  15.2290360
  46.6052740  45.4717160   8.9914930  45.6642880  45.4867390   9.1662620
  46.9196810  44.6853120   9.4375230  36.5834380  47.1536760   2.5518890
  37.3497650  47.0418120   3.1144320  36.6609070  46.4574730   1.8995660
  35.2781140  44.5861830   3.2351780  35.3584730  43.6389340   3.3469180
  36.1700890  44.9168710   3.3412440  48.6078320  52.6426010  10.6669190
  48.7325740  53.4657180  11.1393000  49.4743880  52.4316740  10.3193340
  36.0795850  54.7357220  10.3386320  36.8158330  54.1872680  10.6094890
  36.4636770  55.6013230  10.1992310  32.9641330  50.8030790   6.2127830
  32.0381110  51.0451930   6.2033240  33.4297760  51.6305050   6.0912580
  35.0854130  53.9203290  19.5271900  35.8866860  54.2415340  19.9407300
  34.5705950  53.5598870  20.2491810  39.1898160  53.9087530   2.1611890
  39.9826770  54.1976360   1.7093680  38.6702510  53.4779700   1.4824370
  43.9218760  50.0283160  19.4747310  43.3156920  50.0514760  18.7343060
  43.6172870  49.2966200  20.0114560  45.3519130  53.7563450  18.0856720
  46.3040880  53.6721470  18.0356960  45.2047350  54.4205160  18.7590510
  48.2428330  53.1357660   3.5848630  47.9569840  52.7222800   2.7702810
  48.0447880  54.0645370   3.4649150  32.8051940  46.4076750  18.4707950
  33.3090960  45.8284030  19.0424180  32.0659360  46.6916980  19.0084320
  39.8589880  47.8147740  18.0043470  39.0935550  48.3832740  17.9198140
  40.0405840  47.5223950  17.1111700  42.9478290  48.1910970   2.6296230
  42.3988390  48.6380270   3.2738970  43.5697550  47.6860220   3.1533900
  47.0013230  49.5453070  18.5618490  47.7422700  49.8828830  18.0585950
  46.2385910  49.7145130  18.0088260  34.8375020  44.5506340  19.3658020
  34.8780360  44.2520210  20.2743250  35.6920520  44.9513950  19.2065540
  38.6153410  47.1501890   4.5261530  39.0369830  46.9841760   5.3692920
  38.7404250  46.3402120   4.0316670  36.7780830  43.1298440  17.3332510
  36.2477290  42.6389390  16.7055850  37.4468900  43.5582640  16.7990440
  45.6758890  47.5967900  17.0973700  46.0899910  47.7512980  17.9464120
  44.7409890  47.7223120  17.2599480  46.1481060  44.9364060  19.1012850
  46.7301830  44.1816380  19.0133330  46.3242830  45.4671500  18.3244330
  37.2653130  40.0960810  17.4129800  37.1710000  39.4781560  16.6880670
  36.6850520  40.8227100  17.1859710  40.0314570  38.6534050  14.4457190
  39.5831870  38.6758310  13.6002740  39.3979770  38.2553070  15.0427490
  40.4374120  47.5488380  15.0669630  40.8562230  48.3921110  14.8945870
  39.5182750  47.6860420  14.8376410  42.7738020  45.2804560  16.4507470
  42.8934230  44.6845700  17.1902310  43.6332020  45.3174250  16.0308770
  45.1125920  45.8341750  15.0269980  44.5861140  46.3584370  14.4235120
  45.4557260  46.4669140  15.6579710  38.2881540  53.8541390  16.1827360
  37.7502630  54.5787450  15.8636060  38.5415500  53.3771730  15.3924700
  39.5406790  41.8225910  17.7083290  40.1306480  41.5141760  18.3961110
  38.7227030  41.3505660  17.8643190  44.3600220  41.4391720  17.9416310
  43.6715740  40.7773260  17.8766300  45.0806240  40.9929990  18.3864770
  44.9900620  38.0343350   4.0006570  45.2702910  37.1911250   4.3565990
  44.2166350  38.2666460   4.5145320  41.1443750  55.0892600  16.4414010
  41.0702450  55.9927740  16.7486380  40.2422590  54.7704500  16.4136080
  39.5280040  39.2670360   2.4453770  39.1802040  38.5894350   1.8656220
  39.7292810  38.8059870   3.2597160  41.6929080  54.2551110   4.0640370
  42.5879870  54.5936080   4.0859130  41.7246710  53.5330520   3.4364650
  35.3325240  49.6278160   2.2927370  35.7700110  50.1707830   2.9484950
  35.8172970  48.8025110   2.3023710  32.5471040  52.4167190   9.7447630
  32.8774050  51.5488250   9.5126270  32.9762040  52.6225710  10.5752590
  37.1432960  50.7476200   7.4049600  36.8428500  50.6241170   8.3053510
  37.0370450  49.8884790   6.9965330  33.0361250  53.2837780  12.4829260
  32.5992240  53.4638580  13.3153410  33.6038930  54.0412400  12.3410980
  48.6723430  52.7854780  16.7706570  48.0725420  52.8447340  16.0270490
  48.8017330  51.8459760  16.9003420  49.9124880  50.5272600   2.1076280
  49.0817840  50.5949250   2.5783510  50.0896710  51.4176720   1.8043140
  49.3681340  47.2720080   4.6110480  50.1300250  47.8416730   4.7170170
  49.3835710  46.7047280   5.3818790  32.8685680  45.7958010   8.8418140
  32.2134520  45.5269650   8.1977840  33.7063630  45.6862490   8.3920120
  50.3741310  48.1270180   9.4552410  50.7450140  47.3437500   9.0488380
  51.0143240  48.8159280   9.2769710  47.3575070  49.5106760  14.8682730
  46.5434910  49.9403920  15.1308520  47.7649270  50.1225170  14.2551780
  49.4200510  47.5654450   1.7683000  49.6949350  48.4733330   1.6402220
  49.2311250  47.5016980   2.7044990  45.8176120  40.5899300   3.0636630
  46.2361000  40.4030280   2.2233290  45.5112180  39.7378350   3.3739560
  49.3165850  45.5023440   6.7612430  48.9409450  44.7351370   6.3293720
  48.5868970  45.8846140   7.2487360  33.9061610  46.1810580  13.3821480
  34.2734650  46.0937980  14.2617500  33.3372430  45.4177130  13.2828340
  48.7065470  44.6494960  16.3951950  48.4751560  44.4207710  15.4949900
  48.9670020  45.5694510  16.3496840  33.4577610  43.0919670  17.2879900
  32.5633660  43.0586430  17.6273610  33.9975160  43.2906460  18.0531150
  47.1453540  39.8751390  19.1731650  48.0223720  39.8834790  19.5565650
  47.1574380  39.1382230  18.5624000  32.0823760  43.0056940   4.7843470
  31.1787840  43.2687140   4.6095130  32.5664380  43.2768110   4.0043430
  48.5916810  43.7280930  10.0619670  49.1154290  43.2343580   9.4309840
  49.1776230  43.8631290  10.8067240  48.7706530  43.8120800  13.5839220
  47.8209240  43.7784340  13.6984210  48.9519540  44.7220910  13.3488990
  34.6250970  42.0622480   2.6937850  35.3342670  41.6405700   2.2085130
  33.9090910  42.1297710   2.0621200  48.0816780  42.9854280   6.0012080
  48.5775900  42.7525150   6.7860960  47.8832850  42.1466120   5.5849720
  33.9617320  37.3668000  11.6363120  34.6093510  36.8165380  11.1958280
  34.3819160  37.6211150  12.4578930  49.5103940  41.6215230   8.5349760
  49.4003220  41.4671270   9.4732030  50.2711530  41.0936170   8.2925170
  47.8569660  37.5609360  14.9932760  48.4941880  38.1743500  15.3591950
  48.0044550  37.5970020  14.0481990  50.3994210  39.4523150   1.7755900
  51.3243520  39.3204330   1.5674190  50.3770000  39.5315970   2.7292350
  50.4732700  40.2233810   4.4012610  49.6784200  40.1578930   4.9305520
  50.6775980  41.1584450   4.3897960  47.4151120  54.2625360   8.3951000
  48.0110190  53.9409930   7.7185420  47.6729270  53.7897180   9.1864270
  33.7149320  37.5223670  14.3788440  33.3664140  37.9787490  15.1446620
  33.3837020  36.6280800  14.4610870  35.3213690  50.6943270  18.5441630
  35.2783320  50.3236180  19.4256090  35.4524700  51.6320840  18.6843450
  39.0219720  52.2502860  14.1451350  38.7811080  52.5177420  13.2581870
  39.9622360  52.4208590  14.2002210  41.2274140  38.7135550  17.9007860
  41.1663030  39.3057380  18.6503270  42.1674520  38.6061510  17.7558120
  43.8648700  38.3705610  17.5400150  44.4789110  38.6884900  16.8781230
  44.4098260  37.8854200  18.1596010  50.2823880  54.2697240  14.9461990
  49.7882160  54.6666110  14.2289120  49.6737170  53.6446450  15.3399270
  34.3869960  37.0499870  17.6539210  34.9352950  36.8687920  16.8905320
  34.4525270  36.2593980  18.1895520  35.1601720  53.6405520  15.6639410
  34.5662040  53.5090220  16.4029450  35.1525560  52.8043660  15.1981510
  44.6056740  36.9337750  13.8669440  43.7316580  37.2672860  13.6642370
  44.4967490  36.4610930  14.6921310  45.5128720  39.1408620  15.2511160
  45.1842080  38.3260380  14.8712890  46.4611020  39.0978430  15.1276850
  47.9663330  54.9120660  12.2248730  47.5066300  55.6636470  11.8506750
  47.3375790  54.1927130  12.1663530  34.7913950  51.0063900  14.6147450
  34.0648010  50.3869190  14.5473400  34.8523100  51.4004510  13.7445530
  38.3959050  53.2208900  11.3996860  38.9124070  52.6096260  10.8745120
  39.0456430  53.7237680  11.8907870  41.1354550  54.1117390  12.2265840
  41.4232360  53.8571690  11.3498850  41.6477770  53.5594750  12.8171410
  42.3531560  37.8507590  12.8062350  41.5703350  38.3253090  13.0859110
  42.0594490  36.9462420  12.6975530  46.9052630  38.5530690  10.8511440
  47.3460720  38.4975790  10.0033040  46.6360220  39.4688700  10.9221620
  48.7691200  38.1845930   8.8620260  48.7079600  37.2407150   8.7151280
  49.5483230  38.2926020   9.4073720  33.0743950  54.3238290   7.8244210
  32.9065990  53.6908970   8.5226100  32.2078460  54.5297690   7.4738400
  33.6971970  38.1555070   5.3276070  34.4551330  38.2683950   4.7540100
  33.2349140  38.9924270   5.2819500  40.2385780  40.2694340   8.3178380
  39.4260290  39.8951230   7.9774260  40.7427420  39.5139420   8.6199570
  44.7410760  36.9336790   9.5561450  45.3440130  37.5057000  10.0309970
  44.0003750  37.4976230   9.3335350  47.8845360  37.3358350   4.8301730
  48.0795990  38.2341800   5.0969160  47.0975230  37.1045430   5.3234680
  34.6806650  53.0171520   5.2694350  34.1554270  53.3979550   4.5656310
  34.6051230  53.6422290   5.9904060  36.0697120  38.6819120   3.8678040
  36.5989880  37.8948920   3.7385990  36.7025440  39.3610310   4.1013570
  38.2634960  38.4194260   6.9223430  37.6337700  37.7181570   7.0893560
  37.7240100  39.1798390   6.7056590  41.2026910  55.0333490  19.5934040
  42.1294220  54.7977760  19.6370000  41.1877340  55.8605490  19.1120070
  49.4371970  54.5759060   6.5908290  49.6124160  53.8896800   5.9469210
  48.7393540  55.1006110   6.1984960  38.3890520  37.6978240  19.3575920
  38.1074790  38.2011840  18.5936740  38.7710220  36.8999990  18.9918050
  37.2799620  54.9653900   4.1443600  38.0118440  54.6813180   3.5967490
  37.5393290  54.7267180   5.0342980  36.4414410  51.0818630   4.1489930
  35.8123290  51.5503730   4.6975760  36.5562240  50.2367850   4.5836120
  44.9905980  37.1131820  19.9356390  44.8771430  37.4326430  20.8307910
  45.8075720  37.5144330  19.6393670  47.7704470  54.2603350  19.4175080
  48.5629790  53.7652580  19.2101040  48.0637620  54.9393490  20.0250690
  43.8964130  26.3580800  65.3965090  43.8158180  25.4435410  65.1256800
  43.4828550  26.8547870  64.6904800  42.0282170  28.1359820  67.2774360
  41.2524270  27.6560260  67.5672930  42.6795100  27.4565470  67.1030520
  36.0448000  28.4479630  68.1550120  35.2132880  28.1928340  68.5546630
  36.6528980  28.5190400  68.8908040  46.0489600  32.5420010  66.0573490
  45.5871130  31.7707250  66.3860660  46.8615150  32.5686080  66.5625940
  36.0249260  32.4819720  68.3508140  36.3277300  31.5917460  68.1718360
  36.7692850  33.0389940  68.1230390  34.4539950  23.4081520  61.9392510
  33.5656650  23.7497490  61.8372390  34.7381140  23.2081840  61.0473340
  32.4172960  26.0087170  67.8232210  32.9889070  25.2409370  67.8235850
  32.4174500  26.3075930  66.9138820  42.2752910  34.8278020  65.6777480
  41.6564350  35.2835520  65.1071920  43.1304690  34.9829480  65.2767180
  41.4691160  30.8117010  67.2844520  41.3999440  29.8706950  67.1233650
  42.2311020  30.9018420  67.8567090  33.6597830  21.4171530  69.6101140
  33.4800670  20.5197280  69.8903900  33.2577910  21.9643400  70.2848090
  42.4996330  23.6187390  67.5113450  42.8761150  22.7459270  67.3987120
  42.4015840  23.9546090  66.6203890  36.6301340  21.9913020  62.9730890
  36.7368090  22.8916750  63.2799650  35.7193700  21.9430990  62.6825540
  46.2820450  21.1137830  64.4441790  47.1030070  20.6234400  64.4867270
  46.3154530  21.7035490  65.1973630  34.2784500  23.9132030  68.2183480
  34.9594610  24.1770400  68.8370880  33.9632550  23.0732900  68.5521490
  38.4709070  24.9599390  67.3056070  38.9787290  25.4580360  67.9461090
  39.0022310  24.1834590  67.1295430  50.5720000  23.1304580  71.0085420
  49.8672170  23.5186290  70.4900530  50.8377920  23.8254870  71.6106350
  36.7545170  19.5997950  71.5719490  36.7563610  20.1170340  70.7665390
  35.9249480  19.1228130  71.5489420  43.1416260  29.7117260  63.0709390
  42.5233530  30.1766710  62.5072110  43.6539510  30.4044740  63.4878900
  38.0048020  29.2393130  69.7492990  37.6717400  29.8662050  70.3914060
  38.1814700  29.7655010  68.9694660  46.5181930  23.0538210  67.2169330
  45.8137500  23.3423100  67.7972440  46.8794090  23.8638320  66.8568890
  36.4360500  21.3107910  69.5789940  36.7777310  22.1549960  69.2843810
  35.4976310  21.4591650  69.6955280  37.2167120  31.2073930  71.5642170
  37.8341120  31.8825010  71.2826620  36.3560240  31.6161910  71.4729670
  32.5099460  30.3973790  60.4449020  32.1327440  30.8860890  59.7133920
  32.7672530  31.0699070  61.0755550  48.1344710  32.6713340  69.4796810
  47.4508230  33.3412450  69.4713480  48.6739000  32.8693990  68.7141670
  49.5868850  22.4993000  67.6078540  48.6393760  22.5331980  67.7393970
  49.9118840  23.3131950  67.9927900  40.1188390  18.7990180  65.9034530
  40.4263370  18.2437070  65.1870030  39.1889090  18.9334640  65.7207520
  45.6703450  34.5157470  68.1941990  45.6830610  34.1119760  67.3264250
  45.1178670  35.2904760  68.0903420  46.9648870  31.2373690  63.2832160
  46.8545200  30.2948020  63.4081580  46.9617120  31.5989330  64.1694920
  45.0688890  29.4187310  69.5224600  45.4857680  29.2047420  68.6878060
  45.7928710  29.6760100  70.0933220  42.5069150  26.8639010  62.6394650
  41.5798430  26.7976390  62.8683120  42.6593970  27.8019140  62.5249890
  42.4938230  23.1356010  59.6361810  41.5541900  23.2969970  59.7214270
  42.8121490  23.8541690  59.0897800  49.0150990  27.8174530  69.6140840
  48.1869620  27.8867620  69.1390970  49.6101470  28.4028840  69.1456670
  46.5366440  28.4259310  63.1429900  45.9178860  28.0878860  62.4956200
  46.5190890  27.7819070  63.8509090  45.9793000  24.6043850  70.5595710
  45.5664180  25.4297560  70.8135700  45.2468950  24.0188890  70.3672070
  38.1125790  27.3903750  65.4214380  37.7082790  26.6781000  64.9260280
  38.1988910  27.0456990  66.3102420  38.5807490  31.0771310  67.5853590
  38.2835780  30.4716780  66.9061370  39.5307310  31.1148620  67.4742950
  36.8254410  24.1646960  69.2013420  37.3769000  24.2742300  68.4266670
  37.3397920  24.5384560  69.9168650  46.6693100  34.6503180  71.2476690
  46.1923660  35.4575370  71.0549300  45.9854890  33.9981510  71.4002900
  37.6725920  30.8153000  74.2361390  36.7754450  31.0392970  74.4834790
  37.6978790  30.9387940  73.2872790  44.7131140  27.6646120  60.1502650
  45.1524420  26.8268550  60.0040470  45.4259560  28.2975520  60.2366790
  36.4997140  27.6866320  72.8118760  36.3604910  28.5589120  73.1806160
  35.6178500  27.3439130  72.6666700  42.8226520  32.6042190  64.1183890
  43.2622430  33.3466520  63.7039280  42.7613410  32.8468760  65.0422850
  38.2977490  33.6288020  75.0203910  38.2692920  34.0330970  74.1532340
  38.1342460  32.6998380  74.8575510  48.2948280  18.9188930  58.4643690
  47.9820940  19.0115760  59.3642760  49.0560750  19.4969960  58.4141120
  34.8130420  26.2848730  62.9221030  34.6928020  27.0110820  62.3102300
  34.5031310  25.5151640  62.4448940  32.4515790  29.4563870  68.7289670
  32.5296210  29.5912640  67.7845390  33.0657470  28.7479760  68.9217790
  33.6963420  31.1564060  65.1395850  33.2891500  31.2978650  64.2849450
  34.5876430  30.8724220  64.9367060  49.6525560  31.6027970  73.4768090
  49.7788620  31.3639850  72.5585270  49.6946940  30.7712510  73.9490170
  43.5142300  35.3055970  72.0462900  44.0286970  35.2163980  72.8485330
  42.6711380  35.6515670  72.3390810  45.4896700  35.5911310  61.4746900
  45.3297840  35.3014250  62.3728730  45.3243410  34.8151440  60.9392130
  37.9685080  35.3709840  63.2518520  37.7927560  34.4545380  63.0386320
  37.1140820  35.7297130  63.4916320  45.1922830  33.0998870  60.0344900
  44.4987990  33.0976160  59.3747180  45.9345690  32.6758190  59.6039070
  44.7572760  34.7261580  64.1093390  45.2129710  33.9450960  64.4232010
  45.0965280  35.4368400  64.6534570  49.5049570  23.6560430  74.4417830
  48.8893840  24.1640100  73.9133290  49.1845990  22.7558760  74.3843770
  32.5075310  30.4978040  71.2684130  32.6706350  30.0283400  70.4503500
  32.9727760  29.9901600  71.9332970  37.2794080  19.6283800  66.3044700
  36.8362230  20.4093340  65.9729220  37.8379070  19.9513690  67.0115640
  41.5663890  22.4952320  71.9080020  41.1043260  22.7035340  72.7199960
  41.1642000  21.6811670  71.6050690  46.5668400  23.7161270  73.0376680
  45.7161990  23.4167020  73.3585750  46.4070190  23.9603280  72.1260500
  43.6618110  25.2163020  75.1375470  43.9871520  24.3826770  74.7977700
  44.4498440  25.7391540  75.2853800  40.3952900  19.2494500  61.1850530
  39.7707080  19.2454370  61.9103840  40.3083020  18.3825460  60.7886500
  39.3169980  20.1731130  68.1634300  39.6142310  21.0793960  68.0826320
  39.8655540  19.6849910  67.5493870  37.0708300  24.7517370  64.0325950
  36.8449220  24.5354540  64.9372570  36.2900830  25.1845830  63.6871920
  44.3006060  24.7580740  62.6316600  43.7014950  25.4816540  62.4480220
  44.8485670  24.6957520  61.8493050  39.5107510  25.6502950  74.6986220
  39.4151110  24.7097680  74.5486620  40.3539490  25.8718020  74.3034290
  42.9070930  23.3944280  64.6619880  43.3000500  23.7116480  63.8488570
  43.2687780  22.5156160  64.7764400  34.6418050  22.0616620  72.8520000
  34.2481440  22.9091830  73.0592780  33.9536450  21.4242990  73.0428640
  31.9435100  19.9845080  66.8850080  31.6548150  20.5547940  67.5975060
  32.6880860  19.5049530  67.2481310  32.1305330  23.9265200  58.0952800
  32.0480000  24.8695960  58.2367790  31.7788390  23.7840110  57.2165150
  43.4926070  25.9850030  68.7570660  42.7607190  26.4936840  69.1060760
  43.0950410  25.1680010  68.4559440  39.9303460  22.6604230  67.1623150
  39.9339520  22.2194180  66.3127690  40.8254580  22.9821560  67.2694970
  35.7805840  22.5430720  66.1217360  35.4405890  23.0205950  66.8784410
  35.0183160  22.0895840  65.7618460  39.9923610  23.6616310  60.1529910
  40.1136430  23.6202790  61.1015730  39.6072120  24.5240460  59.9976640
  43.9551980  21.4383710  68.1693600  43.9724720  21.8892360  69.0135450
  43.7067560  20.5389350  68.3827040  39.0045110  25.9717450  59.5513210
  38.4362010  25.5235700  58.9249120  39.7134110  26.3310230  59.0178360
  47.3822730  18.8515890  74.0079980  47.7068500  18.1205550  74.5337960
  47.4179240  18.5329530  73.1060970  34.0814290  29.8729470  73.4279940
  33.6969080  29.2323140  74.0262900  34.3926480  30.5765590  73.9974670
  40.2311430  26.7206010  68.9088560  40.5981560  26.2464580  69.6549900
  40.0416490  27.5947580  69.2496900  33.0951920  21.4649700  65.0382030
  32.8098840  21.1005370  65.8760650  33.0330780  20.7330160  64.4245170
  38.0210800  25.7614650  71.2272770  37.7167870  26.6406630  71.4523130
  38.9757260  25.8214440  71.2630210  36.5492590  29.9675640  61.8239620
  35.7754850  29.4273260  61.6638340  37.2787220  29.4482250  61.4857380
  47.3080570  28.9641000  67.6166010  48.0279690  29.4596290  67.2262120
  47.1062390  28.2858890  66.9719880  42.7690510  20.3578960  61.7595400
  41.9555120  19.8592130  61.6840710  42.5752460  21.1977210  61.3431750
  42.6899370  29.0350060  73.5035010  42.6236680  28.1145730  73.2492600
  42.0604510  29.1325500  74.2179650  45.4838900  24.7298610  60.0557560
  46.3718520  25.0415840  59.8808900  45.4543990  23.8570860  59.6638140
  36.5929990  29.6356020  65.4618430  37.1108660  28.8324280  65.4075320
  36.1414010  29.5735160  66.3035260  41.4799490  30.9022300  60.7345730
  41.8215190  31.6464530  60.2389050  40.6512200  31.2153420  61.0970560
  34.0774530  26.6017390  72.3744130  33.7189470  27.2671240  72.9617470
  33.7829090  25.7700940  72.7456750  37.2787650  27.0601630  75.2583680
  36.9787790  27.2058810  74.3611500  38.0498890  26.5006920  75.1657070
  42.6216100  31.8570630  73.2538810  42.6360640  30.9251590  73.0357720
  41.9141200  31.9430390  73.8928580  47.7553170  26.0410450  59.5237420
  47.6716890  26.4724670  58.6733860  48.4747360  26.5008800  59.9564240
  48.8327310  28.4977970  72.6007390  48.1075500  29.0906750  72.4036780
  49.3602770  28.4901510  71.8020760  48.7840420  32.8952710  62.2519550
  48.1416580  32.2408330  62.5263270  48.3971080  33.3007800  61.4760220
  44.3626900  30.2238140  66.0991240  44.7150720  29.6266270  65.4392610
  43.4789230  29.8982370  66.2699490  40.4490180  30.9835830  63.5061650
  41.1361310  31.5305040  63.8869240  39.6622600  31.5276560  63.5411260
  32.5882580  26.6008650  58.9978730  33.4577430  26.8833450  59.2814650
  32.0972900  27.4144520  58.8827540  39.7517390  27.9881860  63.1187010
  40.2080170  28.7987110  63.3447200  39.4005600  27.6705000  63.9505500
  42.0550000  33.4988200  70.3479310  42.6992220  33.7047580  71.0252730
  42.4179440  32.7376600  69.8950160  35.6529170  18.3319510  63.5909530
  35.5243800  18.3237410  64.5394450  34.8291190  18.6702600  63.2400540
  43.3282080  31.5020550  69.0656760  43.9704310  30.8013710  69.1788930
  43.8531430  32.2818990  68.8853650  47.1737800  31.7869170  58.7895900
  46.9475380  31.0699610  59.3820540  46.7834000  31.5381610  57.9517650
  45.1019700  32.3015450  72.2692820  45.4375940  32.8882140  72.9470740
  44.1820040  32.1708160  72.4990610  32.9553830  35.8136030  59.5640360
  33.3151470  36.4125370  58.9097630  32.8146170  36.3595920  60.3375390
  32.6523100  20.0910630  73.0516230  31.9381620  20.2907550  73.6568840
  33.0718140  19.3150200  73.4231030  46.7554050  29.7041110  60.4510060
  46.4675750  30.1653800  61.2387940  47.5506220  29.2438880  60.7194280
  32.9395690  34.0790890  74.0382760  33.0486810  33.1385630  73.8978150
  32.2876250  34.3445640  73.3896490  40.9308280  32.3506780  75.4380880
  40.6105150  31.6316020  75.9826570  40.2566640  33.0261850  75.5116940
  38.9722450  33.1967230  60.3814030  38.9632550  33.9296920  59.7658540
  38.0520810  32.9498810  60.4740990  34.5729090  28.4182120  61.1260790
  33.9657040  29.1581020  61.1356090  35.0478440  28.5081480  60.2998990
  44.1461880  22.5832940  70.8017680  44.5142700  21.7628150  71.1297250
  43.2860080  22.6434830  71.2173330  47.5123910  21.5389880  61.6105240
  46.8837070  21.6435550  60.8963470  47.0175830  21.7586660  62.3999120
  41.9582050  33.2595470  59.0439220  42.0594030  33.0559460  58.1141200
  41.0583790  33.0053750  59.2487000  39.4807940  23.8175830  63.0263120
  38.7724090  24.2862170  63.4676730  39.7652420  23.1597840  63.6608310
  41.1063870  25.2372530  71.0255650  41.6049120  25.7118350  71.6907500
  41.2486820  24.3136050  71.2325680  43.5123370  20.5426490  64.4658910
  43.3891150  20.5612620  63.5168420  44.4607930  20.5905430  64.5857310
  40.6000160  35.7781790  63.7386890  40.8541660  35.7403180  62.8166260
  39.6512640  35.6515120  63.7315140  37.6842960  22.1260910  60.4013830
  38.5333490  22.5631060  60.3354020  37.3174230  22.4381170  61.2285890
  48.3130730  21.4540490  71.8684040  47.8104330  22.1945890  72.2077850
  49.1287390  21.8424490  71.5520830  46.6052740  26.6973670  65.3145400
  45.6642880  26.7123900  65.4893090  46.9196810  25.9109630  65.7605700
  36.5834380  28.3793270  58.8749360  37.3497650  28.2674630  59.4374790
  36.6609070  27.6831240  58.2226130  35.2781140  25.8118340  59.5582250
  35.3584730  24.8645850  59.6699650  36.1700890  26.1425220  59.6642910
  48.6078320  33.8682520  66.9899660  48.7325740  34.6913690  67.4623470
  49.4743880  33.6573250  66.6423810  36.0795850  35.9613730  66.6616790
  36.8158330  35.4129190  66.9325360  36.4636770  36.8269740  66.5222780
  32.9641330  32.0287300  62.5358300  32.0381110  32.2708440  62.5263710
  33.4297760  32.8561560  62.4143050  39.1898160  35.1344040  58.4842360
  39.9826770  35.4232870  58.0324150  38.6702510  34.7036210  57.8054840
  45.3519130  34.9819960  74.4087190  46.3040880  34.8977980  74.3587430
  45.2047350  35.6461670  75.0820980  48.2428330  34.3614170  59.9079100
  47.9569840  33.9479310  59.0933280  48.0447880  35.2901880  59.7879620
  32.8051940  27.6333260  74.7938420  33.3090960  27.0540540  75.3654650
  32.0659360  27.9173490  75.3314790  39.7075560  30.3547450  58.3484710
  39.6026200  29.7399800  59.0746090  39.5399780  29.8313340  57.5647720
  39.8589880  29.0404250  74.3273940  39.0935550  29.6089250  74.2428610
  40.0405840  28.7480460  73.4342170  42.9478290  29.4167480  58.9526700
  42.3988390  29.8636780  59.5969440  43.5697550  28.9116730  59.4764370
  47.0013230  30.7709580  74.8848960  47.7422700  31.1085340  74.3816420
  46.2385910  30.9401640  74.3318730  38.6153410  28.3758400  60.8492000
  39.0369830  28.2098270  61.6923390  38.7404250  27.5658630  60.3547140
  36.7780830  24.3554950  73.6562980  36.2477290  23.8645900  73.0286320
  37.4468900  24.7839150  73.1220910  41.1281050  27.3996010  58.0969100
  41.6486710  26.6845030  57.7310250  41.7749450  28.0381880  58.3969610
  45.6758890  28.8224410  73.4204170  46.0899910  28.9769490  74.2694590
  44.7409890  28.9479630  73.5829950  46.1481060  26.1620570  75.4243320
  46.7301830  25.4072890  75.3363800  46.3242830  26.6928010  74.6474800
  37.2653130  21.3217320  73.7360270  37.1710000  20.7038070  73.0111140
  36.6850520  22.0483610  73.5090180  40.0314570  19.8790560  70.7687660
  39.5831870  19.9014820  69.9233210  39.3979770  19.4809580  71.3657960
  40.4374120  28.7744890  71.3900100  40.8562230  29.6177620  71.2176340
  39.5182750  28.9116930  71.1606880  42.7738020  26.5061070  72.7737940
  42.8934230  25.9102210  73.5132780  43.6332020  26.5430760  72.3539240
  45.1125920  27.0598260  71.3500450  44.5861140  27.5840880  70.7465590
  45.4557260  27.6925650  71.9810180  37.5112310  24.4491630  57.7950160
  37.3101370  23.5858990  58.1563500  37.3404360  24.3624990  56.8571760
  38.2881540  35.0797900  72.5057830  37.7502630  35.8043960  72.1866530
  38.5415500  34.6028240  71.7155170  39.5406790  23.0482420  74.0313760
  40.1306480  22.7398270  74.7191580  38.7227030  22.5762170  74.1873660
  44.3600220  22.6648230  74.2646780  43.6715740  22.0029770  74.1996770
  45.0806240  22.2186500  74.7095240  44.9900620  19.2599860  60.3237040
  45.2702910  18.4167760  60.6796460  44.2166350  19.4922970  60.8375790
  36.3095110  21.5492250  57.7828040  36.6121010  21.5559680  56.8747190
  37.0489700  21.1990110  58.2795700  41.1443750  36.3149110  72.7644480
  41.0702450  37.2184250  73.0716850  40.2422590  35.9961010  72.7366550
  39.5280040  20.4926870  58.7684240  39.1802040  19.8150860  58.1886690
  39.7292810  20.0316380  59.5827630  41.6929080  35.4807620  60.3870840
  42.5879870  35.8192590  60.4089600  41.7246710  34.7587030  59.7595120
  35.3325240  30.8534670  58.6157840  35.7700110  31.3964340  59.2715420
  35.8172970  30.0281620  58.6254180  32.5471040  33.6423700  66.0678100
  32.8774050  32.7744760  65.8356740  32.9762040  33.8482220  66.8983060
  37.1432960  31.9732710  63.7280070  36.8428500  31.8497680  64.6283980
  37.0370450  31.1141300  63.3195800  33.0361250  34.5094290  68.8059730
  32.5992240  34.6895090  69.6383880  33.6038930  35.2668910  68.6641450
  48.6723430  34.0111290  73.0937040  48.0725420  34.0703850  72.3500960
  48.8017330  33.0716270  73.2233890  49.9124880  31.7529110  58.4306750
  49.0817840  31.8205760  58.9013980  50.0896710  32.6433230  58.1273610
  49.3681340  28.4976590  60.9340950  50.1300250  29.0673240  61.0400640
  49.3835710  27.9303790  61.7049260  32.8685680  27.0214520  65.1648610
  32.2134520  26.7526160  64.5208310  33.7063630  26.9119000  64.7150590
  50.3741310  29.3526690  65.7782880  50.7450140  28.5694010  65.3718850
  51.0143240  30.0415790  65.6000180  47.3575070  30.7363270  71.1913200
  46.5434910  31.1660430  71.4538990  47.7649270  31.3481680  70.5782250
  49.4200510  28.7910960  58.0913470  49.6949350  29.6989840  57.9632690
  49.2311250  28.7273490  59.0275460  45.8176120  21.8155810  59.3867100
  46.2361000  21.6286790  58.5463760  45.5112180  20.9634860  59.6970030
  49.3165850  26.7279950  63.0842900  48.9409450  25.9607880  62.6524190
  48.5868970  27.1102650  63.5717830  33.9061610  27.4067090  69.7051950
  34.2734650  27.3194490  70.5847970  33.3372430  26.6433640  69.6058810
  48.7065470  25.8751470  72.7182420  48.4751560  25.6464220  71.8180370
  48.9670020  26.7951020  72.6727310  33.4577610  24.3176180  73.6110370
  32.5633660  24.2842940  73.9504080  33.9975160  24.5162970  74.3761620
  47.1453540  21.1007900  75.4962120  48.0223720  21.1091300  75.8796120
  47.1574380  20.3638740  74.8854470  32.0823760  24.2313450  61.1073940
  31.1787840  24.4943650  60.9325600  32.5664380  24.5024620  60.3273900
  48.5916810  24.9537440  66.3850140  49.1154290  24.4600090  65.7540310
  49.1776230  25.0887800  67.1297710  48.7706530  25.0377310  69.9069690
  47.8209240  25.0040850  70.0214680  48.9519540  25.9477420  69.6719460
  34.6250970  23.2878990  59.0168320  35.3342670  22.8662210  58.5315600
  33.9090910  23.3554220  58.3851670  34.2725130  19.3418320  58.0570970
  34.9953260  19.8827260  58.3752190  34.5449650  19.0681740  57.1812510
  48.0816780  24.2110790  62.3242550  48.5775900  23.9781660  63.1091430
  47.8832850  23.3722630  61.9080190  33.9617320  18.5924510  67.9593590
  34.6093510  18.0421890  67.5188750  34.3819160  18.8467660  68.7809400
  49.5103940  22.8471740  64.8580230  49.4003220  22.6927780  65.7962500
  50.2711530  22.3192680  64.6155640  47.8569660  18.7865870  71.3163230
  48.4941880  19.4000010  71.6822420  48.0044550  18.8226530  70.3712460
  50.3994210  20.6779660  58.0986370  51.3243520  20.5460840  57.8904660
  50.3770000  20.7572480  59.0522820  50.4732700  21.4490320  60.7243080
  49.6784200  21.3835440  61.2535990  50.6775980  22.3840960  60.7128430
  47.4151120  35.4881870  64.7181470  48.0110190  35.1666440  64.0415890
  47.6729270  35.0153690  65.5094740  33.7149320  18.7480180  70.7018910
  33.3664140  19.2044000  71.4677090  33.3837020  17.8537310  70.7841340
  35.3213690  31.9199780  74.8672100  35.2783320  31.5492690  75.7486560
  35.4524700  32.8577350  75.0073920  39.0219720  33.4759370  70.4681820
  38.7811080  33.7433930  69.5812340  39.9622360  33.6465100  70.5232680
  41.2274140  19.9392060  74.2238330  41.1663030  20.5313890  74.9733740
  42.1674520  19.8318020  74.0788590  43.8648700  19.5962120  73.8630620
  44.4789110  19.9141410  73.2011700  44.4098260  19.1110710  74.4826480
  50.2823880  35.4953750  71.2692460  49.7882160  35.8922620  70.5519590
  49.6737170  34.8702960  71.6629740  34.3869960  18.2756380  73.9769680
  34.9352950  18.0944430  73.2135790  34.4525270  17.4850490  74.5125990
  35.1601720  34.8662030  71.9869880  34.5662040  34.7346730  72.7259920
  35.1525560  34.0300170  71.5211980  44.6056740  18.1594260  70.1899910
  43.7316580  18.4929370  69.9872840  44.4967490  17.6867440  71.0151780
  45.5128720  20.3665130  71.5741630  45.1842080  19.5516890  71.1943360
  46.4611020  20.3234940  71.4507320  47.9663330  36.1377170  68.5479200
  47.5066300  36.8892980  68.1737220  47.3375790  35.4183640  68.4894000
  34.7913950  32.2320410  70.9377920  34.0648010  31.6125700  70.8703870
  34.8523100  32.6261020  70.0676000  38.3959050  34.4465410  67.7227330
  38.9124070  33.8352770  67.1975590  39.0456430  34.9494190  68.2138340
  41.1354550  35.3373900  68.5496310  41.4232360  35.0828200  67.6729320
  41.6477770  34.7851260  69.1401880  42.3531560  19.0764100  69.1292820
  41.5703350  19.5509600  69.4089580  42.0594490  18.1718930  69.0206000
  46.9052630  19.7787200  67.1741910  47.3460720  19.7232300  66.3263510
  46.6360220  20.6945210  67.2452090  48.7691200  19.4102440  65.1850730
  48.7079600  18.4663660  65.0381750  49.5483230  19.5182530  65.7304190
  33.0743950  35.5494800  64.1474680  32.9065990  34.9165480  64.8456570
  32.2078460  35.7554200  63.7968870  33.6971970  19.3811580  61.6506540
  34.4551330  19.4940460  61.0770570  33.2349140  20.2180780  61.6049970
  40.2385780  21.4950850  64.6408850  39.4260290  21.1207740  64.3004730
  40.7427420  20.7395930  64.9430040  44.7410760  18.1593300  65.8791920
  45.3440130  18.7313510  66.3540440  44.0003750  18.7232740  65.6565820
  47.8845360  18.5614860  61.1532200  48.0795990  19.4598310  61.4199630
  47.0975230  18.3301940  61.6465150  34.6806650  34.2428030  61.5924820
  34.1554270  34.6236060  60.8886780  34.6051230  34.8678800  62.3134530
  36.0697120  19.9075630  60.1908510  36.5989880  19.1205430  60.0616460
  36.7025440  20.5866820  60.4244040  38.2634960  19.6450770  63.2453900
  37.6337700  18.9438080  63.4124030  37.7240100  20.4054900  63.0287060
  41.2026910  36.2590000  75.9164510  42.1294220  36.0234270  75.9600470
  41.1877340  37.0862000  75.4350540  49.4371970  35.8015570  62.9138760
  49.6124160  35.1153310  62.2699680  48.7393540  36.3262620  62.5215430
  38.3890520  18.9234750  75.6806390  38.1074790  19.4268350  74.9167210
  38.7710220  18.1256500  75.3148520  37.2799620  36.1910410  60.4674070
  38.0118440  35.9069690  59.9197960  37.5393290  35.9523690  61.3573450
  36.4414410  32.3075140  60.4720400  35.8123290  32.7760240  61.0206230
  36.5562240  31.4624360  60.9066590  43.8964130  26.3580800  46.6221600
  43.8158180  25.4435410  46.3513310  43.4828550  26.8547870  45.9161310
  42.0282170  28.1359820  48.5030870  41.2524270  27.6560260  48.7929440
  42.6795100  27.4565470  48.3287030  36.0448000  28.4479630  49.3806630
  35.2132880  28.1928340  49.7803140  36.6528980  28.5190400  50.1164550
  46.0489600  32.5420010  47.2830000  45.5871130  31.7707250  47.6117170
  46.8615150  32.5686080  47.7882450  34.4539950  23.4081520  43.1649020
  33.5656650  23.7497490  43.0628900  34.7381140  23.2081840  42.2729850
  32.4172960  26.0087170  49.0488720  32.9889070  25.2409370  49.0492360
  32.4174500  26.3075930  48.1395330  42.2752910  34.8278020  46.9033990
  41.6564350  35.2835520  46.3328430  43.1304690  34.9829480  46.5023690
  41.4691160  30.8117010  48.5101030  41.3999440  29.8706950  48.3490160
  42.2311020  30.9018420  49.0823600  33.6597830  21.4171530  50.8357650
  33.4800670  20.5197280  51.1160410  33.2577910  21.9643400  51.5104600
  42.4996330  23.6187390  48.7369960  42.8761150  22.7459270  48.6243630
  42.4015840  23.9546090  47.8460400  36.6301340  21.9913020  44.1987400
  36.7368090  22.8916750  44.5056160  35.7193700  21.9430990  43.9082050
  46.2820450  21.1137830  45.6698300  47.1030070  20.6234400  45.7123780
  46.3154530  21.7035490  46.4230140  34.2784500  23.9132030  49.4439990
  34.9594610  24.1770400  50.0627390  33.9632550  23.0732900  49.7778000
  38.4709070  24.9599390  48.5312580  38.9787290  25.4580360  49.1717600
  39.0022310  24.1834590  48.3551940  50.5720000  23.1304580  52.2341930
  49.8672170  23.5186290  51.7157040  50.8377920  23.8254870  52.8362860
  36.7545170  19.5997950  52.7976000  36.7563610  20.1170340  51.9921900
  35.9249480  19.1228130  52.7745930  43.1416260  29.7117260  44.2965900
  42.5233530  30.1766710  43.7328620  43.6539510  30.4044740  44.7135410
  38.0048020  29.2393130  50.9749500  37.6717400  29.8662050  51.6170570
  38.1814700  29.7655010  50.1951170  46.5181930  23.0538210  48.4425840
  45.8137500  23.3423100  49.0228950  46.8794090  23.8638320  48.0825400
  36.4360500  21.3107910  50.8046450  36.7777310  22.1549960  50.5100320
  35.4976310  21.4591650  50.9211790  37.2167120  31.2073930  52.7898680
  37.8341120  31.8825010  52.5083130  36.3560240  31.6161910  52.6986180
  32.5099460  30.3973790  41.6705530  32.1327440  30.8860890  40.9390430
  32.7672530  31.0699070  42.3012060  48.1344710  32.6713340  50.7053320
  47.4508230  33.3412450  50.6969990  48.6739000  32.8693990  49.9398180
  49.5868850  22.4993000  48.8335050  48.6393760  22.5331980  48.9650480
  49.9118840  23.3131950  49.2184410  40.1188390  18.7990180  47.1291040
  40.4263370  18.2437070  46.4126540  39.1889090  18.9334640  46.9464030
  45.6703450  34.5157470  49.4198500  45.6830610  34.1119760  48.5520760
  45.1178670  35.2904760  49.3159930  46.9648870  31.2373690  44.5088670
  46.8545200  30.2948020  44.6338090  46.9617120  31.5989330  45.3951430
  45.0688890  29.4187310  50.7481110  45.4857680  29.2047420  49.9134570
  45.7928710  29.6760100  51.3189730  42.5069150  26.8639010  43.8651160
  41.5798430  26.7976390  44.0939630  42.6593970  27.8019140  43.7506400
  42.4938230  23.1356010  40.8618320  41.5541900  23.2969970  40.9470780
  42.8121490  23.8541690  40.3154310  49.0150990  27.8174530  50.8397350
  48.1869620  27.8867620  50.3647480  49.6101470  28.4028840  50.3713180
  46.5366440  28.4259310  44.3686410  45.9178860  28.0878860  43.7212710
  46.5190890  27.7819070  45.0765600  45.9793000  24.6043850  51.7852220
  45.5664180  25.4297560  52.0392210  45.2468950  24.0188890  51.5928580
  38.1125790  27.3903750  46.6470890  37.7082790  26.6781000  46.1516790
  38.1988910  27.0456990  47.5358930  36.8254410  24.1646960  50.4269930
  37.3769000  24.2742300  49.6523180  37.3397920  24.5384560  51.1425160
  46.6693100  34.6503180  52.4733200  46.1923660  35.4575370  52.2805810
  45.9854890  33.9981510  52.6259410  37.6725920  30.8153000  55.4617900
  36.7754450  31.0392970  55.7091300  37.6978790  30.9387940  54.5129300
  44.7131140  27.6646120  41.3759160  45.1524420  26.8268550  41.2296980
  45.4259560  28.2975520  41.4623300  36.4997140  27.6866320  54.0375270
  36.3604910  28.5589120  54.4062670  35.6178500  27.3439130  53.8923210
  42.8226520  32.6042190  45.3440400  43.2622430  33.3466520  44.9295790
  42.7613410  32.8468760  46.2679360  38.2977490  33.6288020  56.2460420
  38.2692920  34.0330970  55.3788850  38.1342460  32.6998380  56.0832020
  48.2948280  18.9188930  39.6900200  47.9820940  19.0115760  40.5899270
  49.0560750  19.4969960  39.6397630  34.8130420  26.2848730  44.1477540
  34.6928020  27.0110820  43.5358810  34.5031310  25.5151640  43.6705450
  50.2492310  34.4115120  57.5424590  50.7252030  34.8898010  58.2213670
  50.8699470  34.3432610  56.8170090  32.4515790  29.4563870  49.9546180
  32.5296210  29.5912640  49.0101900  33.0657470  28.7479760  50.1474300
  33.6963420  31.1564060  46.3652360  33.2891500  31.2978650  45.5105960
  34.5876430  30.8724220  46.1623570  49.6525560  31.6027970  54.7024600
  49.7788620  31.3639850  53.7841780  49.6946940  30.7712510  55.1746680
  43.5142300  35.3055970  53.2719410  44.0286970  35.2163980  54.0741840
  42.6711380  35.6515670  53.5647320  45.4896700  35.5911310  42.7003410
  45.3297840  35.3014250  43.5985240  45.3243410  34.8151440  42.1648640
  45.1922830  33.0998870  41.2601410  44.4987990  33.0976160  40.6003690
  45.9345690  32.6758190  40.8295580  44.7572760  34.7261580  45.3349900
  45.2129710  33.9450960  45.6488520  45.0965280  35.4368400  45.8791080
  49.5049570  23.6560430  55.6674340  48.8893840  24.1640100  55.1389800
  49.1845990  22.7558760  55.6100280  32.5075310  30.4978040  52.4940640
  32.6706350  30.0283400  51.6760010  32.9727760  29.9901600  53.1589480
  37.2794080  19.6283800  47.5301210  36.8362230  20.4093340  47.1985730
  37.8379070  19.9513690  48.2372150  41.5663890  22.4952320  53.1336530
  41.1043260  22.7035340  53.9456470  41.1642000  21.6811670  52.8307200
  46.5668400  23.7161270  54.2633190  45.7161990  23.4167020  54.5842260
  46.4070190  23.9603280  53.3517010  43.6618110  25.2163020  56.3631980
  43.9871520  24.3826770  56.0234210  44.4498440  25.7391540  56.5110310
  40.3952900  19.2494500  42.4107040  39.7707080  19.2454370  43.1360350
  40.3083020  18.3825460  42.0143010  39.3169980  20.1731130  49.3890810
  39.6142310  21.0793960  49.3082830  39.8655540  19.6849910  48.7750380
  37.0708300  24.7517370  45.2582460  36.8449220  24.5354540  46.1629080
  36.2900830  25.1845830  44.9128430  44.3006060  24.7580740  43.8573110
  43.7014950  25.4816540  43.6736730  44.8485670  24.6957520  43.0749560
  39.5107510  25.6502950  55.9242730  39.4151110  24.7097680  55.7743130
  40.3539490  25.8718020  55.5290800  42.9070930  23.3944280  45.8876390
  43.3000500  23.7116480  45.0745080  43.2687780  22.5156160  46.0020910
  34.6418050  22.0616620  54.0776510  34.2481440  22.9091830  54.2849290
  33.9536450  21.4242990  54.2685150  41.2163100  22.1451590  57.1473250
  40.5261420  21.9523790  57.7819340  41.9595400  22.4286230  57.6797550
  31.9435100  19.9845080  48.1106590  31.6548150  20.5547940  48.8231570
  32.6880860  19.5049530  48.4737820  32.1305330  23.9265200  39.3209310
  32.0480000  24.8695960  39.4624300  31.7788390  23.7840110  38.4421660
  43.4926070  25.9850030  49.9827170  42.7607190  26.4936840  50.3317270
  43.0950410  25.1680010  49.6815950  39.9303460  22.6604230  48.3879660
  39.9339520  22.2194180  47.5384200  40.8254580  22.9821560  48.4951480
  35.7805840  22.5430720  47.3473870  35.4405890  23.0205950  48.1040920
  35.0183160  22.0895840  46.9874970  39.9923610  23.6616310  41.3786420
  40.1136430  23.6202790  42.3272240  39.6072120  24.5240460  41.2233150
  43.9551980  21.4383710  49.3950110  43.9724720  21.8892360  50.2391960
  43.7067560  20.5389350  49.6083550  39.0045110  25.9717450  40.7769720
  38.4362010  25.5235700  40.1505630  39.7134110  26.3310230  40.2434870
  47.3822730  18.8515890  55.2336490  47.7068500  18.1205550  55.7594470
  47.4179240  18.5329530  54.3317480  34.0814290  29.8729470  54.6536450
  33.6969080  29.2323140  55.2519410  34.3926480  30.5765590  55.2231180
  40.2311430  26.7206010  50.1345070  40.5981560  26.2464580  50.8806410
  40.0416490  27.5947580  50.4753410  33.0951920  21.4649700  46.2638540
  32.8098840  21.1005370  47.1017160  33.0330780  20.7330160  45.6501680
  38.0210800  25.7614650  52.4529280  37.7167870  26.6406630  52.6779640
  38.9757260  25.8214440  52.4886720  36.5492590  29.9675640  43.0496130
  35.7754850  29.4273260  42.8894850  37.2787220  29.4482250  42.7113890
  47.3080570  28.9641000  48.8422520  48.0279690  29.4596290  48.4518630
  47.1062390  28.2858890  48.1976390  42.7690510  20.3578960  42.9851910
  41.9555120  19.8592130  42.9097220  42.5752460  21.1977210  42.5688260
  42.6899370  29.0350060  54.7291520  42.6236680  28.1145730  54.4749110
  42.0604510  29.1325500  55.4436160  45.4838900  24.7298610  41.2814070
  46.3718520  25.0415840  41.1065410  45.4543990  23.8570860  40.8894650
  36.5929990  29.6356020  46.6874940  37.1108660  28.8324280  46.6331830
  36.1414010  29.5735160  47.5291770  41.4799490  30.9022300  41.9602240
  41.8215190  31.6464530  41.4645560  40.6512200  31.2153420  42.3227070
  34.0774530  26.6017390  53.6000640  33.7189470  27.2671240  54.1873980
  33.7829090  25.7700940  53.9713260  37.2787650  27.0601630  56.4840190
  36.9787790  27.2058810  55.5868010  38.0498890  26.5006920  56.3913580
  42.6216100  31.8570630  54.4795320  42.6360640  30.9251590  54.2614230
  41.9141200  31.9430390  55.1185090  47.7553170  26.0410450  40.7493930
  47.6716890  26.4724670  39.8990370  48.4747360  26.5008800  41.1820750
  48.8327310  28.4977970  53.8263900  48.1075500  29.0906750  53.6293290
  49.3602770  28.4901510  53.0277270  48.7840420  32.8952710  43.4776060
  48.1416580  32.2408330  43.7519780  48.3971080  33.3007800  42.7016730
  44.3626900  30.2238140  47.3247750  44.7150720  29.6266270  46.6649120
  43.4789230  29.8982370  47.4956000  40.4490180  30.9835830  44.7318160
  41.1361310  31.5305040  45.1125750  39.6622600  31.5276560  44.7667770
  32.5882580  26.6008650  40.2235240  33.4577430  26.8833450  40.5071160
  32.0972900  27.4144520  40.1084050  39.7517390  27.9881860  44.3443520
  40.2080170  28.7987110  44.5703710  39.4005600  27.6705000  45.1762010
  42.0550000  33.4988200  51.5735820  42.6992220  33.7047580  52.2509240
  42.4179440  32.7376600  51.1206670  35.6529170  18.3319510  44.8166040
  35.5243800  18.3237410  45.7650960  34.8291190  18.6702600  44.4657050
  43.3282080  31.5020550  50.2913270  43.9704310  30.8013710  50.4045440
  43.8531430  32.2818990  50.1110160  47.1737800  31.7869170  40.0152410
  46.9475380  31.0699610  40.6077050  46.7834000  31.5381610  39.1774160
  45.1019700  32.3015450  53.4949330  45.4375940  32.8882140  54.1727250
  44.1820040  32.1708160  53.7247120  32.9553830  35.8136030  40.7896870
  33.3151470  36.4125370  40.1354140  32.8146170  36.3595920  41.5631900
  32.6523100  20.0910630  54.2772740  31.9381620  20.2907550  54.8825350
  33.0718140  19.3150200  54.6487540  46.7554050  29.7041110  41.6766570
  46.4675750  30.1653800  42.4644450  47.5506220  29.2438880  41.9450790
  32.9395690  34.0790890  55.2639270  33.0486810  33.1385630  55.1234660
  32.2876250  34.3445640  54.6153000  40.9308280  32.3506780  56.6637390
  40.6105150  31.6316020  57.2083080  40.2566640  33.0261850  56.7373450
  38.9722450  33.1967230  41.6070540  38.9632550  33.9296920  40.9915050
  38.0520810  32.9498810  41.6997500  34.5729090  28.4182120  42.3517300
  33.9657040  29.1581020  42.3612600  35.0478440  28.5081480  41.5255500
  44.1461880  22.5832940  52.0274190  44.5142700  21.7628150  52.3553760
  43.2860080  22.6434830  52.4429840  47.5123910  21.5389880  42.8361750
  46.8837070  21.6435550  42.1219980  47.0175830  21.7586660  43.6255630
  41.9582050  33.2595470  40.2695730  42.0594030  33.0559460  39.3397710
  41.0583790  33.0053750  40.4743510  39.4807940  23.8175830  44.2519630
  38.7724090  24.2862170  44.6933240  39.7652420  23.1597840  44.8864820
  41.1063870  25.2372530  52.2512160  41.6049120  25.7118350  52.9164010
  41.2486820  24.3136050  52.4582190  43.5123370  20.5426490  45.6915420
  43.3891150  20.5612620  44.7424930  44.4607930  20.5905430  45.8113820
  37.6842960  22.1260910  41.6270340  38.5333490  22.5631060  41.5610530
  37.3174230  22.4381170  42.4542400  48.3130730  21.4540490  53.0940550
  47.8104330  22.1945890  53.4334360  49.1287390  21.8424490  52.7777340
  46.6052740  26.6973670  46.5401910  45.6642880  26.7123900  46.7149600
  46.9196810  25.9109630  46.9862210  36.5834380  28.3793270  40.1005870
  37.3497650  28.2674630  40.6631300  36.6609070  27.6831240  39.4482640
  35.2781140  25.8118340  40.7838760  35.3584730  24.8645850  40.8956160
  36.1700890  26.1425220  40.8899420  48.6078320  33.8682520  48.2156170
  48.7325740  34.6913690  48.6879980  49.4743880  33.6573250  47.8680320
  32.9641330  32.0287300  43.7614810  32.0381110  32.2708440  43.7520220
  33.4297760  32.8561560  43.6399560  35.0854130  35.1459800  57.0758880
  35.8866860  35.4671850  57.4894280  34.5705950  34.7855380  57.7978790
  39.1898160  35.1344040  39.7098870  39.9826770  35.4232870  39.2580660
  38.6702510  34.7036210  39.0311350  43.9218760  31.2539670  57.0234290
  43.3156920  31.2771270  56.2830040  43.6172870  30.5222710  57.5601540
  45.3519130  34.9819960  55.6343700  46.3040880  34.8977980  55.5843940
  45.2047350  35.6461670  56.3077490  48.2428330  34.3614170  41.1335610
  47.9569840  33.9479310  40.3189790  48.0447880  35.2901880  41.0136130
  32.8051940  27.6333260  56.0194930  33.3090960  27.0540540  56.5911160
  32.0659360  27.9173490  56.5571300  39.7075560  30.3547450  39.5741220
  39.6026200  29.7399800  40.3002600  39.5399780  29.8313340  38.7904230
  39.8589880  29.0404250  55.5530450  39.0935550  29.6089250  55.4685120
  40.0405840  28.7480460  54.6598680  42.9478290  29.4167480  40.1783210
  42.3988390  29.8636780  40.8225950  43.5697550  28.9116730  40.7020880
  47.0013230  30.7709580  56.1105470  47.7422700  31.1085340  55.6072930
  46.2385910  30.9401640  55.5575240  34.8375020  25.7762850  56.9145000
  34.8780360  25.4776720  57.8230230  35.6920520  26.1770460  56.7552520
  38.6153410  28.3758400  42.0748510  39.0369830  28.2098270  42.9179900
  38.7404250  27.5658630  41.5803650  36.7780830  24.3554950  54.8819490
  36.2477290  23.8645900  54.2542830  37.4468900  24.7839150  54.3477420
  41.1281050  27.3996010  39.3225610  41.6486710  26.6845030  38.9566760
  41.7749450  28.0381880  39.6226120  45.6758890  28.8224410  54.6460680
  46.0899910  28.9769490  55.4951100  44.7409890  28.9479630  54.8086460
  46.1481060  26.1620570  56.6499830  46.7301830  25.4072890  56.5620310
  46.3242830  26.6928010  55.8731310  37.2653130  21.3217320  54.9616780
  37.1710000  20.7038070  54.2367650  36.6850520  22.0483610  54.7346690
  40.0314570  19.8790560  51.9944170  39.5831870  19.9014820  51.1489720
  39.3979770  19.4809580  52.5914470  40.4374120  28.7744890  52.6156610
  40.8562230  29.6177620  52.4432850  39.5182750  28.9116930  52.3863390
  42.7738020  26.5061070  53.9994450  42.8934230  25.9102210  54.7389290
  43.6332020  26.5430760  53.5795750  45.1125920  27.0598260  52.5756960
  44.5861140  27.5840880  51.9722100  45.4557260  27.6925650  53.2066690
  37.5112310  24.4491630  39.0206670  37.3101370  23.5858990  39.3820010
  37.3404360  24.3624990  38.0828270  38.2881540  35.0797900  53.7314340
  37.7502630  35.8043960  53.4123040  38.5415500  34.6028240  52.9411680
  39.5406790  23.0482420  55.2570270  40.1306480  22.7398270  55.9448090
  38.7227030  22.5762170  55.4130170  44.3600220  22.6648230  55.4903290
  43.6715740  22.0029770  55.4253280  45.0806240  22.2186500  55.9351750
  44.9900620  19.2599860  41.5493550  45.2702910  18.4167760  41.9052970
  44.2166350  19.4922970  42.0632300  36.3095110  21.5492250  39.0084550
  36.6121010  21.5559680  38.1003700  37.0489700  21.1990110  39.5052210
  41.1443750  36.3149110  53.9900990  41.0702450  37.2184250  54.2973360
  40.2422590  35.9961010  53.9623060  39.5280040  20.4926870  39.9940750
  39.1802040  19.8150860  39.4143200  39.7292810  20.0316380  40.8084140
  41.6929080  35.4807620  41.6127350  42.5879870  35.8192590  41.6346110
  41.7246710  34.7587030  40.9851630  35.3325240  30.8534670  39.8414350
  35.7700110  31.3964340  40.4971930  35.8172970  30.0281620  39.8510690
  32.5471040  33.6423700  47.2934610  32.8774050  32.7744760  47.0613250
  32.9762040  33.8482220  48.1239570  33.0361250  34.5094290  50.0316240
  32.5992240  34.6895090  50.8640390  33.6038930  35.2668910  49.8897960
  48.6723430  34.0111290  54.3193550  48.0725420  34.0703850  53.5757470
  48.8017330  33.0716270  54.4490400  49.9124880  31.7529110  39.6563260
  49.0817840  31.8205760  40.1270490  50.0896710  32.6433230  39.3530120
  49.3681340  28.4976590  42.1597460  50.1300250  29.0673240  42.2657150
  49.3835710  27.9303790  42.9305770  32.8685680  27.0214520  46.3905120
  32.2134520  26.7526160  45.7464820  33.7063630  26.9119000  45.9407100
  50.3741310  29.3526690  47.0039390  50.7450140  28.5694010  46.5975360
  51.0143240  30.0415790  46.8256690  47.3575070  30.7363270  52.4169710
  46.5434910  31.1660430  52.6795500  47.7649270  31.3481680  51.8038760
  49.4200510  28.7910960  39.3169980  49.6949350  29.6989840  39.1889200
  49.2311250  28.7273490  40.2531970  45.8176120  21.8155810  40.6123610
  46.2361000  21.6286790  39.7720270  45.5112180  20.9634860  40.9226540
  49.3165850  26.7279950  44.3099410  48.9409450  25.9607880  43.8780700
  48.5868970  27.1102650  44.7974340  33.9061610  27.4067090  50.9308460
  34.2734650  27.3194490  51.8104480  33.3372430  26.6433640  50.8315320
  48.7065470  25.8751470  53.9438930  48.4751560  25.6464220  53.0436880
  48.9670020  26.7951020  53.8983820  33.4577610  24.3176180  54.8366880
  32.5633660  24.2842940  55.1760590  33.9975160  24.5162970  55.6018130
  47.1453540  21.1007900  56.7218630  48.0223720  21.1091300  57.1052630
  47.1574380  20.3638740  56.1110980  32.0823760  24.2313450  42.3330450
  31.1787840  24.4943650  42.1582110  32.5664380  24.5024620  41.5530410
  48.5916810  24.9537440  47.6106650  49.1154290  24.4600090  46.9796820
  49.1776230  25.0887800  48.3554220  48.7706530  25.0377310  51.1326200
  47.8209240  25.0040850  51.2471190  48.9519540  25.9477420  50.8975970
  34.6250970  23.2878990  40.2424830  35.3342670  22.8662210  39.7572110
  33.9090910  23.3554220  39.6108180  34.2725130  19.3418320  39.2827480
  34.9953260  19.8827260  39.6008700  34.5449650  19.0681740  38.4069020
  48.0816780  24.2110790  43.5499060  48.5775900  23.9781660  44.3347940
  47.8832850  23.3722630  43.1336700  33.9617320  18.5924510  49.1850100
  34.6093510  18.0421890  48.7445260  34.3819160  18.8467660  50.0065910
  49.5103940  22.8471740  46.0836740  49.4003220  22.6927780  47.0219010
  50.2711530  22.3192680  45.8412150  47.8569660  18.7865870  52.5419740
  48.4941880  19.4000010  52.9078930  48.0044550  18.8226530  51.5968970
  50.3994210  20.6779660  39.3242880  51.3243520  20.5460840  39.1161170
  50.3770000  20.7572480  40.2779330  50.4732700  21.4490320  41.9499590
  49.6784200  21.3835440  42.4792500  50.6775980  22.3840960  41.9384940
  47.4151120  35.4881870  45.9437980  48.0110190  35.1666440  45.2672400
  47.6729270  35.0153690  46.7351250  33.7149320  18.7480180  51.9275420
  33.3664140  19.2044000  52.6933600  33.3837020  17.8537310  52.0097850
  35.3213690  31.9199780  56.0928610  35.2783320  31.5492690  56.9743070
  35.4524700  32.8577350  56.2330430  41.2274140  19.9392060  55.4494840
  41.1663030  20.5313890  56.1990250  42.1674520  19.8318020  55.3045100
  43.8648700  19.5962120  55.0887130  44.4789110  19.9141410  54.4268210
  44.4098260  19.1110710  55.7082990  50.2823880  35.4953750  52.4948970
  49.7882160  35.8922620  51.7776100  49.6737170  34.8702960  52.8886250
  34.3869960  18.2756380  55.2026190  34.9352950  18.0944430  54.4392300
  34.4525270  17.4850490  55.7382500  35.1601720  34.8662030  53.2126390
  34.5662040  34.7346730  53.9516430  35.1525560  34.0300170  52.7468490
  44.6056740  18.1594260  51.4156420  43.7316580  18.4929370  51.2129350
  44.4967490  17.6867440  52.2408290  45.5128720  20.3665130  52.7998140
  45.1842080  19.5516890  52.4199870  46.4611020  20.3234940  52.6763830
  47.9663330  36.1377170  49.7735710  47.5066300  36.8892980  49.3993730
  47.3375790  35.4183640  49.7150510  34.7913950  32.2320410  52.1634430
  34.0648010  31.6125700  52.0960380  34.8523100  32.6261020  51.2932510
  42.3531560  19.0764100  50.3549330  41.5703350  19.5509600  50.6346090
  42.0594490  18.1718930  50.2462510  46.9052630  19.7787200  48.3998420
  47.3460720  19.7232300  47.5520020  46.6360220  20.6945210  48.4708600
  48.7691200  19.4102440  46.4107240  48.7079600  18.4663660  46.2638260
  49.5483230  19.5182530  46.9560700  33.6971970  19.3811580  42.8763050
  34.4551330  19.4940460  42.3027080  33.2349140  20.2180780  42.8306480
  40.2385780  21.4950850  45.8665360  39.4260290  21.1207740  45.5261240
  40.7427420  20.7395930  46.1686550  44.7410760  18.1593300  47.1048430
  45.3440130  18.7313510  47.5796950  44.0003750  18.7232740  46.8822330
  47.8845360  18.5614860  42.3788710  48.0795990  19.4598310  42.6456140
  47.0975230  18.3301940  42.8721660  34.6806650  34.2428030  42.8181330
  34.1554270  34.6236060  42.1143290  34.6051230  34.8678800  43.5391040
  36.0697120  19.9075630  41.4165020  36.5989880  19.1205430  41.2872970
  36.7025440  20.5866820  41.6500550  38.2634960  19.6450770  44.4710410
  37.6337700  18.9438080  44.6380540  37.7240100  20.4054900  44.2543570
  41.2026910  36.2590000  57.1421020  42.1294220  36.0234270  57.1856980
  41.1877340  37.0862000  56.6607050  49.4371970  35.8015570  44.1395270
  49.6124160  35.1153310  43.4956190  48.7393540  36.3262620  43.7471940
  38.3890520  18.9234750  56.9062900  38.1074790  19.4268350  56.1423720
  38.7710220  18.1256500  56.5405030  37.2799620  36.1910410  41.6930580
  38.0118440  35.9069690  41.1454470  37.5393290  35.9523690  42.5829960
  36.4414410  32.3075140  41.6976910  35.8123290  32.7760240  42.2462740
  36.5562240  31.4624360  42.1323100  44.9905980  18.3388330  57.4843370
  44.8771430  18.6582940  58.3794890  45.8075720  18.7400840  57.1880650
  47.7704470  35.4859860  56.9662060  48.5629790  34.9909090  56.7588020
  48.0637620  36.1650000  57.5737670  43.8964130  26.3580800  27.8478110
  43.8158180  25.4435410  27.5769820  43.4828550  26.8547870  27.1417820
  42.0282170  28.1359820  29.7287380  41.2524270  27.6560260  30.0185950
  42.6795100  27.4565470  29.5543540  36.0448000  28.4479630  30.6063140
  35.2132880  28.1928340  31.0059650  36.6528980  28.5190400  31.3421060
  46.0489600  32.5420010  28.5086510  45.5871130  31.7707250  28.8373680
  46.8615150  32.5686080  29.0138960  36.0249260  32.4819720  30.8021160
  36.3277300  31.5917460  30.6231380  36.7692850  33.0389940  30.5743410
  34.4539950  23.4081520  24.3905530  33.5656650  23.7497490  24.2885410
  34.7381140  23.2081840  23.4986360  32.4172960  26.0087170  30.2745230
  32.9889070  25.2409370  30.2748870  32.4174500  26.3075930  29.3651840
  42.2752910  34.8278020  28.1290500  41.6564350  35.2835520  27.5584940
  43.1304690  34.9829480  27.7280200  41.4691160  30.8117010  29.7357540
  41.3999440  29.8706950  29.5746670  42.2311020  30.9018420  30.3080110
  33.6597830  21.4171530  32.0614160  33.4800670  20.5197280  32.3416920
  33.2577910  21.9643400  32.7361110  42.4996330  23.6187390  29.9626470
  42.8761150  22.7459270  29.8500140  42.4015840  23.9546090  29.0716910
  36.6301340  21.9913020  25.4243910  36.7368090  22.8916750  25.7312670
  35.7193700  21.9430990  25.1338560  46.2820450  21.1137830  26.8954810
  47.1030070  20.6234400  26.9380290  46.3154530  21.7035490  27.6486650
  34.2784500  23.9132030  30.6696500  34.9594610  24.1770400  31.2883900
  33.9632550  23.0732900  31.0034510  38.4709070  24.9599390  29.7569090
  38.9787290  25.4580360  30.3974110  39.0022310  24.1834590  29.5808450
  50.5720000  23.1304580  33.4598440  49.8672170  23.5186290  32.9413550
  50.8377920  23.8254870  34.0619370  36.7545170  19.5997950  34.0232510
  36.7563610  20.1170340  33.2178410  35.9249480  19.1228130  34.0002440
  43.1416260  29.7117260  25.5222410  42.5233530  30.1766710  24.9585130
  43.6539510  30.4044740  25.9391920  38.0048020  29.2393130  32.2006010
  37.6717400  29.8662050  32.8427080  38.1814700  29.7655010  31.4207680
  46.5181930  23.0538210  29.6682350  45.8137500  23.3423100  30.2485460
  46.8794090  23.8638320  29.3081910  36.4360500  21.3107910  32.0302960
  36.7777310  22.1549960  31.7356830  35.4976310  21.4591650  32.1468300
  37.2167120  31.2073930  34.0155190  37.8341120  31.8825010  33.7339640
  36.3560240  31.6161910  33.9242690  32.5099460  30.3973790  22.8962040
  32.1327440  30.8860890  22.1646940  32.7672530  31.0699070  23.5268570
  48.1344710  32.6713340  31.9309830  47.4508230  33.3412450  31.9226500
  48.6739000  32.8693990  31.1654690  49.5868850  22.4993000  30.0591560
  48.6393760  22.5331980  30.1906990  49.9118840  23.3131950  30.4440920
  40.1188390  18.7990180  28.3547550  40.4263370  18.2437070  27.6383050
  39.1889090  18.9334640  28.1720540  45.6703450  34.5157470  30.6455010
  45.6830610  34.1119760  29.7777270  45.1178670  35.2904760  30.5416440
  46.9648870  31.2373690  25.7345180  46.8545200  30.2948020  25.8594600
  46.9617120  31.5989330  26.6207940  45.0688890  29.4187310  31.9737620
  45.4857680  29.2047420  31.1391080  45.7928710  29.6760100  32.5446240
  42.5069150  26.8639010  25.0907670  41.5798430  26.7976390  25.3196140
  42.6593970  27.8019140  24.9762910  42.4938230  23.1356010  22.0874830
  41.5541900  23.2969970  22.1727290  42.8121490  23.8541690  21.5410820
  49.0150990  27.8174530  32.0653860  48.1869620  27.8867620  31.5903990
  49.6101470  28.4028840  31.5969690  46.5366440  28.4259310  25.5942920
  45.9178860  28.0878860  24.9469220  46.5190890  27.7819070  26.3022110
  45.9793000  24.6043850  33.0108730  45.5664180  25.4297560  33.2648720
  45.2468950  24.0188890  32.8185090  38.1125790  27.3903750  27.8727400
  37.7082790  26.6781000  27.3773300  38.1988910  27.0456990  28.7615440
  38.5807490  31.0771310  30.0366610  38.2835780  30.4716780  29.3574390
  39.5307310  31.1148620  29.9255970  36.8254410  24.1646960  31.6526440
  37.3769000  24.2742300  30.8779690  37.3397920  24.5384560  32.3681670
  46.6693100  34.6503180  33.6989710  46.1923660  35.4575370  33.5062320
  45.9854890  33.9981510  33.8515920  37.6725920  30.8153000  36.6874410
  36.7754450  31.0392970  36.9347810  37.6978790  30.9387940  35.7385810
  44.7131140  27.6646120  22.6015670  45.1524420  26.8268550  22.4553490
  45.4259560  28.2975520  22.6879810  36.4997140  27.6866320  35.2631780
  36.3604910  28.5589120  35.6319180  35.6178500  27.3439130  35.1179720
  42.8226520  32.6042190  26.5696910  43.2622430  33.3466520  26.1552300
  42.7613410  32.8468760  27.4935870  38.2977490  33.6288020  37.4716930
  38.2692920  34.0330970  36.6045360  38.1342460  32.6998380  37.3088530
  48.2948280  18.9188930  20.9156710  47.9820940  19.0115760  21.8155780
  49.0560750  19.4969960  20.8654140  34.8130420  26.2848730  25.3734050
  34.6928020  27.0110820  24.7615320  34.5031310  25.5151640  24.8961960
  50.2492310  34.4115120  38.7681100  50.7252030  34.8898010  39.4470180
  50.8699470  34.3432610  38.0426600  32.4515790  29.4563870  31.1802690
  32.5296210  29.5912640  30.2358410  33.0657470  28.7479760  31.3730810
  33.6963420  31.1564060  27.5908870  33.2891500  31.2978650  26.7362470
  34.5876430  30.8724220  27.3880080  49.6525560  31.6027970  35.9281110
  49.7788620  31.3639850  35.0098290  49.6946940  30.7712510  36.4003190
  43.5142300  35.3055970  34.4975920  44.0286970  35.2163980  35.2998350
  42.6711380  35.6515670  34.7903830  45.4896700  35.5911310  23.9259920
  45.3297840  35.3014250  24.8241750  45.3243410  34.8151440  23.3905150
  37.9685080  35.3709840  25.7031540  37.7927560  34.4545380  25.4899340
  37.1140820  35.7297130  25.9429340  45.1922830  33.0998870  22.4857920
  44.4987990  33.0976160  21.8260200  45.9345690  32.6758190  22.0552090
  44.7572760  34.7261580  26.5606410  45.2129710  33.9450960  26.8745030
  45.0965280  35.4368400  27.1047590  49.5049570  23.6560430  36.8930850
  48.8893840  24.1640100  36.3646310  49.1845990  22.7558760  36.8356790
  32.5075310  30.4978040  33.7197150  32.6706350  30.0283400  32.9016520
  32.9727760  29.9901600  34.3845990  37.2794080  19.6283800  28.7557720
  36.8362230  20.4093340  28.4242240  37.8379070  19.9513690  29.4628660
  41.5663890  22.4952320  34.3593040  41.1043260  22.7035340  35.1712980
  41.1642000  21.6811670  34.0563710  46.5668400  23.7161270  35.4889700
  45.7161990  23.4167020  35.8098770  46.4070190  23.9603280  34.5773520
  43.6618110  25.2163020  37.5888490  43.9871520  24.3826770  37.2490720
  44.4498440  25.7391540  37.7366820  40.3952900  19.2494500  23.6363550
  39.7707080  19.2454370  24.3616860  40.3083020  18.3825460  23.2399520
  39.3169980  20.1731130  30.6147320  39.6142310  21.0793960  30.5339340
  39.8655540  19.6849910  30.0006890  37.0708300  24.7517370  26.4838970
  36.8449220  24.5354540  27.3885590  36.2900830  25.1845830  26.1384940
  44.3006060  24.7580740  25.0829620  43.7014950  25.4816540  24.8993240
  44.8485670  24.6957520  24.3006070  39.5107510  25.6502950  37.1499240
  39.4151110  24.7097680  36.9999640  40.3539490  25.8718020  36.7547310
  42.9070930  23.3944280  27.1132900  43.3000500  23.7116480  26.3001590
  43.2687780  22.5156160  27.2277420  34.6418050  22.0616620  35.3033020
  34.2481440  22.9091830  35.5105800  33.9536450  21.4242990  35.4941660
  41.2163100  22.1451590  38.3729760  40.5261420  21.9523790  39.0075850
  41.9595400  22.4286230  38.9054060  31.9435100  19.9845080  29.3363100
  31.6548150  20.5547940  30.0488080  32.6880860  19.5049530  29.6994330
  32.1305330  23.9265200  20.5465820  32.0480000  24.8695960  20.6880810
  31.7788390  23.7840110  19.6678170  43.4926070  25.9850030  31.2083680
  42.7607190  26.4936840  31.5573780  43.0950410  25.1680010  30.9072460
  39.9303460  22.6604230  29.6136170  39.9339520  22.2194180  28.7640710
  40.8254580  22.9821560  29.7207990  35.7805840  22.5430720  28.5730380
  35.4405890  23.0205950  29.3297430  35.0183160  22.0895840  28.2131480
  39.9923610  23.6616310  22.6042930  40.1136430  23.6202790  23.5528750
  39.6072120  24.5240460  22.4489660  43.9551980  21.4383710  30.6206620
  43.9724720  21.8892360  31.4648470  43.7067560  20.5389350  30.8340060
  39.0045110  25.9717450  22.0026230  38.4362010  25.5235700  21.3762140
  39.7134110  26.3310230  21.4691380  47.3822730  18.8515890  36.4593000
  47.7068500  18.1205550  36.9850980  47.4179240  18.5329530  35.5573990
  34.0814290  29.8729470  35.8792960  33.6969080  29.2323140  36.4775920
  34.3926480  30.5765590  36.4487690  40.2311430  26.7206010  31.3601580
  40.5981560  26.2464580  32.1062920  40.0416490  27.5947580  31.7009920
  33.0951920  21.4649700  27.4895050  32.8098840  21.1005370  28.3273670
  33.0330780  20.7330160  26.8758190  38.0210800  25.7614650  33.6785790
  37.7167870  26.6406630  33.9036150  38.9757260  25.8214440  33.7143230
  36.5492590  29.9675640  24.2752640  35.7754850  29.4273260  24.1151360
  37.2787220  29.4482250  23.9370400  47.3080570  28.9641000  30.0679030
  48.0279690  29.4596290  29.6775140  47.1062390  28.2858890  29.4232900
  42.7690510  20.3578960  24.2108420  41.9555120  19.8592130  24.1353730
  42.5752460  21.1977210  23.7944770  42.6899370  29.0350060  35.9548030
  42.6236680  28.1145730  35.7005620  42.0604510  29.1325500  36.6692670
  45.4838900  24.7298610  22.5070580  46.3718520  25.0415840  22.3321920
  45.4543990  23.8570860  22.1151160  36.5929990  29.6356020  27.9131450
  37.1108660  28.8324280  27.8588340  36.1414010  29.5735160  28.7548280
  41.4799490  30.9022300  23.1858750  41.8215190  31.6464530  22.6902070
  40.6512200  31.2153420  23.5483580  34.0774530  26.6017390  34.8257150
  33.7189470  27.2671240  35.4130490  33.7829090  25.7700940  35.1969770
  37.2787650  27.0601630  37.7096700  36.9787790  27.2058810  36.8124520
  38.0498890  26.5006920  37.6170090  42.6216100  31.8570630  35.7051830
  42.6360640  30.9251590  35.4870740  41.9141200  31.9430390  36.3441600
  47.7553170  26.0410450  21.9750440  47.6716890  26.4724670  21.1246880
  48.4747360  26.5008800  22.4077260  48.8327310  28.4977970  35.0520410
  48.1075500  29.0906750  34.8549800  49.3602770  28.4901510  34.2533780
  48.7840420  32.8952710  24.7032570  48.1416580  32.2408330  24.9776290
  48.3971080  33.3007800  23.9273240  44.3626900  30.2238140  28.5504260
  44.7150720  29.6266270  27.8905630  43.4789230  29.8982370  28.7212510
  40.4490180  30.9835830  25.9574670  41.1361310  31.5305040  26.3382260
  39.6622600  31.5276560  25.9924280  32.5882580  26.6008650  21.4491750
  33.4577430  26.8833450  21.7327670  32.0972900  27.4144520  21.3340560
  39.7517390  27.9881860  25.5700030  40.2080170  28.7987110  25.7960220
  39.4005600  27.6705000  26.4018520  42.0550000  33.4988200  32.7992330
  42.6992220  33.7047580  33.4765750  42.4179440  32.7376600  32.3463180
  35.6529170  18.3319510  26.0422550  35.5243800  18.3237410  26.9907470
  34.8291190  18.6702600  25.6913560  43.3282080  31.5020550  31.5169780
  43.9704310  30.8013710  31.6301950  43.8531430  32.2818990  31.3366670
  47.1737800  31.7869170  21.2408920  46.9475380  31.0699610  21.8333560
  46.7834000  31.5381610  20.4030670  45.1019700  32.3015450  34.7205840
  45.4375940  32.8882140  35.3983760  44.1820040  32.1708160  34.9503630
  32.9553830  35.8136030  22.0153380  33.3151470  36.4125370  21.3610650
  32.8146170  36.3595920  22.7888410  32.6523100  20.0910630  35.5029250
  31.9381620  20.2907550  36.1081860  33.0718140  19.3150200  35.8744050
  46.7554050  29.7041110  22.9023080  46.4675750  30.1653800  23.6900960
  47.5506220  29.2438880  23.1707300  32.9395690  34.0790890  36.4895780
  33.0486810  33.1385630  36.3491170  32.2876250  34.3445640  35.8409510
  40.9308280  32.3506780  37.8893900  40.6105150  31.6316020  38.4339590
  40.2566640  33.0261850  37.9629960  38.9722450  33.1967230  22.8327050
  38.9632550  33.9296920  22.2171560  38.0520810  32.9498810  22.9254010
  34.5729090  28.4182120  23.5773810  33.9657040  29.1581020  23.5869110
  35.0478440  28.5081480  22.7512010  44.1461880  22.5832940  33.2530700
  44.5142700  21.7628150  33.5810270  43.2860080  22.6434830  33.6686350
  47.5123910  21.5389880  24.0618260  46.8837070  21.6435550  23.3476490
  47.0175830  21.7586660  24.8512140  41.9582050  33.2595470  21.4952240
  42.0594030  33.0559460  20.5654220  41.0583790  33.0053750  21.7000020
  39.4807940  23.8175830  25.4776140  38.7724090  24.2862170  25.9189750
  39.7652420  23.1597840  26.1121330  41.1063870  25.2372530  33.4768670
  41.6049120  25.7118350  34.1420520  41.2486820  24.3136050  33.6838700
  43.5123370  20.5426490  26.9171930  43.3891150  20.5612620  25.9681440
  44.4607930  20.5905430  27.0370330  40.6000160  35.7781790  26.1899910
  40.8541660  35.7403180  25.2679280  39.6512640  35.6515120  26.1828160
  37.6842960  22.1260910  22.8526850  38.5333490  22.5631060  22.7867040
  37.3174230  22.4381170  23.6798910  48.3130730  21.4540490  34.3197060
  47.8104330  22.1945890  34.6590870  49.1287390  21.8424490  34.0033850
  46.6052740  26.6973670  27.7658420  45.6642880  26.7123900  27.9406110
  46.9196810  25.9109630  28.2118720  36.5834380  28.3793270  21.3262380
  37.3497650  28.2674630  21.8887810  36.6609070  27.6831240  20.6739150
  35.2781140  25.8118340  22.0095270  35.3584730  24.8645850  22.1212670
  36.1700890  26.1425220  22.1155930  48.6078320  33.8682520  29.4412680
  48.7325740  34.6913690  29.9136490  49.4743880  33.6573250  29.0936830
  36.0795850  35.9613730  29.1129810  36.8158330  35.4129190  29.3838380
  36.4636770  36.8269740  28.9735800  32.9641330  32.0287300  24.9871320
  32.0381110  32.2708440  24.9776730  33.4297760  32.8561560  24.8656070
  35.0854130  35.1459800  38.3015390  35.8866860  35.4671850  38.7150790
  34.5705950  34.7855380  39.0235300  39.1898160  35.1344040  20.9355380
  39.9826770  35.4232870  20.4837170  38.6702510  34.7036210  20.2567860
  43.9218760  31.2539670  38.2490800  43.3156920  31.2771270  37.5086550
  43.6172870  30.5222710  38.7858050  45.3519130  34.9819960  36.8600210
  46.3040880  34.8977980  36.8100450  45.2047350  35.6461670  37.5334000
  48.2428330  34.3614170  22.3592120  47.9569840  33.9479310  21.5446300
  48.0447880  35.2901880  22.2392640  32.8051940  27.6333260  37.2451440
  33.3090960  27.0540540  37.8167670  32.0659360  27.9173490  37.7827810
  39.7075560  30.3547450  20.7997730  39.6026200  29.7399800  21.5259110
  39.5399780  29.8313340  20.0160740  39.8589880  29.0404250  36.7786960
  39.0935550  29.6089250  36.6941630  40.0405840  28.7480460  35.8855190
  42.9478290  29.4167480  21.4039720  42.3988390  29.8636780  22.0482460
  43.5697550  28.9116730  21.9277390  47.0013230  30.7709580  37.3361980
  47.7422700  31.1085340  36.8329440  46.2385910  30.9401640  36.7831750
  34.8375020  25.7762850  38.1401510  34.8780360  25.4776720  39.0486740
  35.6920520  26.1770460  37.9809030  38.6153410  28.3758400  23.3005020
  39.0369830  28.2098270  24.1436410  38.7404250  27.5658630  22.8060160
  36.7780830  24.3554950  36.1076000  36.2477290  23.8645900  35.4799340
  37.4468900  24.7839150  35.5733930  41.1281050  27.3996010  20.5482120
  41.6486710  26.6845030  20.1823270  41.7749450  28.0381880  20.8482630
  45.6758890  28.8224410  35.8717190  46.0899910  28.9769490  36.7207610
  44.7409890  28.9479630  36.0342970  46.1481060  26.1620570  37.8756340
  46.7301830  25.4072890  37.7876820  46.3242830  26.6928010  37.0987820
  37.2653130  21.3217320  36.1873290  37.1710000  20.7038070  35.4624160
  36.6850520  22.0483610  35.9603200  40.0314570  19.8790560  33.2200680
  39.5831870  19.9014820  32.3746230  39.3979770  19.4809580  33.8170980
  40.4374120  28.7744890  33.8413120  40.8562230  29.6177620  33.6689360
  39.5182750  28.9116930  33.6119900  42.7738020  26.5061070  35.2250960
  42.8934230  25.9102210  35.9645800  43.6332020  26.5430760  34.8052260
  45.1125920  27.0598260  33.8013470  44.5861140  27.5840880  33.1978610
  45.4557260  27.6925650  34.4323200  37.5112310  24.4491630  20.2463180
  37.3101370  23.5858990  20.6076520  37.3404360  24.3624990  19.3084780
  38.2881540  35.0797900  34.9570850  37.7502630  35.8043960  34.6379550
  38.5415500  34.6028240  34.1668190  39.5406790  23.0482420  36.4826780
  40.1306480  22.7398270  37.1704600  38.7227030  22.5762170  36.6386680
  44.3600220  22.6648230  36.7159800  43.6715740  22.0029770  36.6509790
  45.0806240  22.2186500  37.1608260  44.9900620  19.2599860  22.7750060
  45.2702910  18.4167760  23.1309480  44.2166350  19.4922970  23.2888810
  36.3095110  21.5492250  20.2341060  36.6121010  21.5559680  19.3260210
  37.0489700  21.1990110  20.7308720  41.1443750  36.3149110  35.2157500
  41.0702450  37.2184250  35.5229870  40.2422590  35.9961010  35.1879570
  39.5280040  20.4926870  21.2197260  39.1802040  19.8150860  20.6399710
  39.7292810  20.0316380  22.0340650  41.6929080  35.4807620  22.8383860
  42.5879870  35.8192590  22.8602620  41.7246710  34.7587030  22.2108140
  35.3325240  30.8534670  21.0670860  35.7700110  31.3964340  21.7228440
  35.8172970  30.0281620  21.0767200  32.5471040  33.6423700  28.5191120
  32.8774050  32.7744760  28.2869760  32.9762040  33.8482220  29.3496080
  37.1432960  31.9732710  26.1793090  36.8428500  31.8497680  27.0797000
  37.0370450  31.1141300  25.7708820  33.0361250  34.5094290  31.2572750
  32.5992240  34.6895090  32.0896900  33.6038930  35.2668910  31.1154470
  48.6723430  34.0111290  35.5450060  48.0725420  34.0703850  34.8013980
  48.8017330  33.0716270  35.6746910  49.9124880  31.7529110  20.8819770
  49.0817840  31.8205760  21.3527000  50.0896710  32.6433230  20.5786630
  49.3681340  28.4976590  23.3853970  50.1300250  29.0673240  23.4913660
  49.3835710  27.9303790  24.1562280  32.8685680  27.0214520  27.6161630
  32.2134520  26.7526160  26.9721330  33.7063630  26.9119000  27.1663610
  50.3741310  29.3526690  28.2295900  50.7450140  28.5694010  27.8231870
  51.0143240  30.0415790  28.0513200  47.3575070  30.7363270  33.6426220
  46.5434910  31.1660430  33.9052010  47.7649270  31.3481680  33.0295270
  49.4200510  28.7910960  20.5426490  49.6949350  29.6989840  20.4145710
  49.2311250  28.7273490  21.4788480  45.8176120  21.8155810  21.8380120
  46.2361000  21.6286790  20.9976780  45.5112180  20.9634860  22.1483050
  49.3165850  26.7279950  25.5355920  48.9409450  25.9607880  25.1037210
  48.5868970  27.1102650  26.0230850  33.9061610  27.4067090  32.1564970
  34.2734650  27.3194490  33.0360990  33.3372430  26.6433640  32.0571830
  48.7065470  25.8751470  35.1695440  48.4751560  25.6464220  34.2693390
  48.9670020  26.7951020  35.1240330  33.4577610  24.3176180  36.0623390
  32.5633660  24.2842940  36.4017100  33.9975160  24.5162970  36.8274640
  47.1453540  21.1007900  37.9475140  48.0223720  21.1091300  38.3309140
  47.1574380  20.3638740  37.3367490  32.0823760  24.2313450  23.5586960
  31.1787840  24.4943650  23.3838620  32.5664380  24.5024620  22.7786920
  48.5916810  24.9537440  28.8363160  49.1154290  24.4600090  28.2053330
  49.1776230  25.0887800  29.5810730  48.7706530  25.0377310  32.3582710
  47.8209240  25.0040850  32.4727700  48.9519540  25.9477420  32.1232480
  34.6250970  23.2878990  21.4681340  35.3342670  22.8662210  20.9828620
  33.9090910  23.3554220  20.8364690  34.2725130  19.3418320  20.5083990
  34.9953260  19.8827260  20.8265210  34.5449650  19.0681740  19.6325530
  48.0816780  24.2110790  24.7755570  48.5775900  23.9781660  25.5604450
  47.8832850  23.3722630  24.3593210  33.9617320  18.5924510  30.4106610
  34.6093510  18.0421890  29.9701770  34.3819160  18.8467660  31.2322420
  49.5103940  22.8471740  27.3093250  49.4003220  22.6927780  28.2475520
  50.2711530  22.3192680  27.0668660  47.8569660  18.7865870  33.7676250
  48.4941880  19.4000010  34.1335440  48.0044550  18.8226530  32.8225480
  50.3994210  20.6779660  20.5499390  51.3243520  20.5460840  20.3417680
  50.3770000  20.7572480  21.5035840  50.4732700  21.4490320  23.1756100
  49.6784200  21.3835440  23.7049010  50.6775980  22.3840960  23.1641450
  47.4151120  35.4881870  27.1694490  48.0110190  35.1666440  26.4928910
  47.6729270  35.0153690  27.9607760  33.7149320  18.7480180  33.1531930
  33.3664140  19.2044000  33.9190110  33.3837020  17.8537310  33.2354360
  35.3213690  31.9199780  37.3185120  35.2783320  31.5492690  38.1999580
  35.4524700  32.8577350  37.4586940  39.0219720  33.4759370  32.9194840
  38.7811080  33.7433930  32.0325360  39.9622360  33.6465100  32.9745700
  41.2274140  19.9392060  36.6751350  41.1663030  20.5313890  37.4246760
  42.1674520  19.8318020  36.5301610  43.8648700  19.5962120  36.3143640
  44.4789110  19.9141410  35.6524720  44.4098260  19.1110710  36.9339500
  50.2823880  35.4953750  33.7205480  49.7882160  35.8922620  33.0032610
  49.6737170  34.8702960  34.1142760  34.3869960  18.2756380  36.4282700
  34.9352950  18.0944430  35.6648810  34.4525270  17.4850490  36.9639010
  35.1601720  34.8662030  34.4382900  34.5662040  34.7346730  35.1772940
  35.1525560  34.0300170  33.9725000  44.6056740  18.1594260  32.6412930
  43.7316580  18.4929370  32.4385860  44.4967490  17.6867440  33.4664800
  45.5128720  20.3665130  34.0254650  45.1842080  19.5516890  33.6456380
  46.4611020  20.3234940  33.9020340  47.9663330  36.1377170  30.9992220
  47.5066300  36.8892980  30.6250240  47.3375790  35.4183640  30.9407020
  34.7913950  32.2320410  33.3890940  34.0648010  31.6125700  33.3216890
  34.8523100  32.6261020  32.5189020  38.3959050  34.4465410  30.1740350
  38.9124070  33.8352770  29.6488610  39.0456430  34.9494190  30.6651360
  41.1354550  35.3373900  31.0009330  41.4232360  35.0828200  30.1242340
  41.6477770  34.7851260  31.5914900  42.3531560  19.0764100  31.5805840
  41.5703350  19.5509600  31.8602600  42.0594490  18.1718930  31.4719020
  46.9052630  19.7787200  29.6254930  47.3460720  19.7232300  28.7776530
  46.6360220  20.6945210  29.6965110  48.7691200  19.4102440  27.6363750
  48.7079600  18.4663660  27.4894770  49.5483230  19.5182530  28.1817210
  33.0743950  35.5494800  26.5987700  32.9065990  34.9165480  27.2969590
  32.2078460  35.7554200  26.2481890  33.6971970  19.3811580  24.1019560
  34.4551330  19.4940460  23.5283590  33.2349140  20.2180780  24.0562990
  40.2385780  21.4950850  27.0921870  39.4260290  21.1207740  26.7517750
  40.7427420  20.7395930  27.3943060  44.7410760  18.1593300  28.3304940
  45.3440130  18.7313510  28.8053460  44.0003750  18.7232740  28.1078840
  47.8845360  18.5614860  23.6045220  48.0795990  19.4598310  23.8712650
  47.0975230  18.3301940  24.0978170  34.6806650  34.2428030  24.0437840
  34.1554270  34.6236060  23.3399800  34.6051230  34.8678800  24.7647550
  36.0697120  19.9075630  22.6421530  36.5989880  19.1205430  22.5129480
  36.7025440  20.5866820  22.8757060  38.2634960  19.6450770  25.6966920
  37.6337700  18.9438080  25.8637050  37.7240100  20.4054900  25.4800080
  41.2026910  36.2590000  38.3677530  42.1294220  36.0234270  38.4113490
  41.1877340  37.0862000  37.8863560  49.4371970  35.8015570  25.3651780
  49.6124160  35.1153310  24.7212700  48.7393540  36.3262620  24.9728450
  38.3890520  18.9234750  38.1319410  38.1074790  19.4268350  37.3680230
  38.7710220  18.1256500  37.7661540  37.2799620  36.1910410  22.9187090
  38.0118440  35.9069690  22.3710980  37.5393290  35.9523690  23.8086470
  36.4414410  32.3075140  22.9233420  35.8123290  32.7760240  23.4719250
  36.5562240  31.4624360  23.3579610  44.9905980  18.3388330  38.7099880
  44.8771430  18.6582940  39.6051400  45.8075720  18.7400840  38.4137160
  47.7704470  35.4859860  38.1918570  48.5629790  34.9909090  37.9844530
  48.0637620  36.1650000  38.7994180  43.8964130  26.3580800   9.0734620
  43.8158180  25.4435410   8.8026330  43.4828550  26.8547870   8.3674330
  42.0282170  28.1359820  10.9543890  41.2524270  27.6560260  11.2442460
  42.6795100  27.4565470  10.7800050  36.0448000  28.4479630  11.8319650
  35.2132880  28.1928340  12.2316160  36.6528980  28.5190400  12.5677570
  46.0489600  32.5420010   9.7343020  45.5871130  31.7707250  10.0630190
  46.8615150  32.5686080  10.2395470  36.0249260  32.4819720  12.0277670
  36.3277300  31.5917460  11.8487890  36.7692850  33.0389940  11.7999920
  34.4539950  23.4081520   5.6162040  33.5656650  23.7497490   5.5141920
  34.7381140  23.2081840   4.7242870  32.4172960  26.0087170  11.5001740
  32.9889070  25.2409370  11.5005380  32.4174500  26.3075930  10.5908350
  42.2752910  34.8278020   9.3547010  41.6564350  35.2835520   8.7841450
  43.1304690  34.9829480   8.9536710  41.4691160  30.8117010  10.9614050
  41.3999440  29.8706950  10.8003180  42.2311020  30.9018420  11.5336620
  33.6597830  21.4171530  13.2870670  33.4800670  20.5197280  13.5673430
  33.2577910  21.9643400  13.9617620  42.4996330  23.6187390  11.1882980
  42.8761150  22.7459270  11.0756650  42.4015840  23.9546090  10.2973420
  36.6301340  21.9913020   6.6500420  36.7368090  22.8916750   6.9569180
  35.7193700  21.9430990   6.3595070  46.2820450  21.1137830   8.1211320
  47.1030070  20.6234400   8.1636800  46.3154530  21.7035490   8.8743160
  34.2784500  23.9132030  11.8953010  34.9594610  24.1770400  12.5140410
  33.9632550  23.0732900  12.2291020  38.4709070  24.9599390  10.9825600
  38.9787290  25.4580360  11.6230620  39.0022310  24.1834590  10.8064960
  50.5720000  23.1304580  14.6854950  49.8672170  23.5186290  14.1670060
  50.8377920  23.8254870  15.2875880  36.7545170  19.5997950  15.2489020
  36.7563610  20.1170340  14.4434920  35.9249480  19.1228130  15.2258950
  43.1416260  29.7117260   6.7478920  42.5233530  30.1766710   6.1841640
  43.6539510  30.4044740   7.1648430  38.0048020  29.2393130  13.4262520
  37.6717400  29.8662050  14.0683590  38.1814700  29.7655010  12.6464190
  46.5181930  23.0538210  10.8938860  45.8137500  23.3423100  11.4741970
  46.8794090  23.8638320  10.5338420  36.4360500  21.3107910  13.2559470
  36.7777310  22.1549960  12.9613340  35.4976310  21.4591650  13.3724810
  37.2167120  31.2073930  15.2411700  37.8341120  31.8825010  14.9596150
  36.3560240  31.6161910  15.1499200  32.5099460  30.3973790   4.1218550
  32.1327440  30.8860890   3.3903450  32.7672530  31.0699070   4.7525080
  48.1344710  32.6713340  13.1566340  47.4508230  33.3412450  13.1483010
  48.6739000  32.8693990  12.3911200  49.5868850  22.4993000  11.2848070
  48.6393760  22.5331980  11.4163500  49.9118840  23.3131950  11.6697430
  40.1188390  18.7990180   9.5804060  40.4263370  18.2437070   8.8639560
  39.1889090  18.9334640   9.3977050  45.6703450  34.5157470  11.8711520
  45.6830610  34.1119760  11.0033780  45.1178670  35.2904760  11.7672950
  46.9648870  31.2373690   6.9601690  46.8545200  30.2948020   7.0851110
  46.9617120  31.5989330   7.8464450  45.0688890  29.4187310  13.1994130
  45.4857680  29.2047420  12.3647590  45.7928710  29.6760100  13.7702750
  42.5069150  26.8639010   6.3164180  41.5798430  26.7976390   6.5452650
  42.6593970  27.8019140   6.2019420  42.4938230  23.1356010   3.3131340
  41.5541900  23.2969970   3.3983800  42.8121490  23.8541690   2.7667330
  49.0150990  27.8174530  13.2910370  48.1869620  27.8867620  12.8160500
  49.6101470  28.4028840  12.8226200  46.5366440  28.4259310   6.8199430
  45.9178860  28.0878860   6.1725730  46.5190890  27.7819070   7.5278620
  45.9793000  24.6043850  14.2365240  45.5664180  25.4297560  14.4905230
  45.2468950  24.0188890  14.0441600  38.1125790  27.3903750   9.0983910
  37.7082790  26.6781000   8.6029810  38.1988910  27.0456990   9.9871950
  38.5807490  31.0771310  11.2623120  38.2835780  30.4716780  10.5830900
  39.5307310  31.1148620  11.1512480  36.8254410  24.1646960  12.8782950
  37.3769000  24.2742300  12.1036200  37.3397920  24.5384560  13.5938180
  46.6693100  34.6503180  14.9246220  46.1923660  35.4575370  14.7318830
  45.9854890  33.9981510  15.0772430  37.6725920  30.8153000  17.9130920
  36.7754450  31.0392970  18.1604320  37.6978790  30.9387940  16.9642320
  44.7131140  27.6646120   3.8272180  45.1524420  26.8268550   3.6810000
  45.4259560  28.2975520   3.9136320  36.4997140  27.6866320  16.4888290
  36.3604910  28.5589120  16.8575690  35.6178500  27.3439130  16.3436230
  42.8226520  32.6042190   7.7953420  43.2622430  33.3466520   7.3808810
  42.7613410  32.8468760   8.7192380  38.2977490  33.6288020  18.6973440
  38.2692920  34.0330970  17.8301870  38.1342460  32.6998380  18.5345040
  48.2948280  18.9188930   2.1413220  47.9820940  19.0115760   3.0412290
  49.0560750  19.4969960   2.0910650  34.8130420  26.2848730   6.5990560
  34.6928020  27.0110820   5.9871830  34.5031310  25.5151640   6.1218470
  50.2492310  34.4115120  19.9937610  50.7252030  34.8898010  20.6726690
  50.8699470  34.3432610  19.2683110  32.4515790  29.4563870  12.4059200
  32.5296210  29.5912640  11.4614920  33.0657470  28.7479760  12.5987320
  33.6963420  31.1564060   8.8165380  33.2891500  31.2978650   7.9618980
  34.5876430  30.8724220   8.6136590  49.6525560  31.6027970  17.1537620
  49.7788620  31.3639850  16.2354800  49.6946940  30.7712510  17.6259700
  43.5142300  35.3055970  15.7232430  44.0286970  35.2163980  16.5254860
  42.6711380  35.6515670  16.0160340  45.4896700  35.5911310   5.1516430
  45.3297840  35.3014250   6.0498260  45.3243410  34.8151440   4.6161660
  37.9685080  35.3709840   6.9288050  37.7927560  34.4545380   6.7155850
  37.1140820  35.7297130   7.1685850  45.1922830  33.0998870   3.7114430
  44.4987990  33.0976160   3.0516710  45.9345690  32.6758190   3.2808600
  44.7572760  34.7261580   7.7862920  45.2129710  33.9450960   8.1001540
  45.0965280  35.4368400   8.3304100  49.5049570  23.6560430  18.1187360
  48.8893840  24.1640100  17.5902820  49.1845990  22.7558760  18.0613300
  32.5075310  30.4978040  14.9453660  32.6706350  30.0283400  14.1273030
  32.9727760  29.9901600  15.6102500  37.2794080  19.6283800   9.9814230
  36.8362230  20.4093340   9.6498750  37.8379070  19.9513690  10.6885170
  41.5663890  22.4952320  15.5849550  41.1043260  22.7035340  16.3969490
  41.1642000  21.6811670  15.2820220  46.5668400  23.7161270  16.7146210
  45.7161990  23.4167020  17.0355280  46.4070190  23.9603280  15.8030030
  43.6618110  25.2163020  18.8145000  43.9871520  24.3826770  18.4747230
  44.4498440  25.7391540  18.9623330  40.3952900  19.2494500   4.8620060
  39.7707080  19.2454370   5.5873370  40.3083020  18.3825460   4.4656030
  39.3169980  20.1731130  11.8403830  39.6142310  21.0793960  11.7595850
  39.8655540  19.6849910  11.2263400  37.0708300  24.7517370   7.7095480
  36.8449220  24.5354540   8.6142100  36.2900830  25.1845830   7.3641450
  44.3006060  24.7580740   6.3086130  43.7014950  25.4816540   6.1249750
  44.8485670  24.6957520   5.5262580  39.5107510  25.6502950  18.3755750
  39.4151110  24.7097680  18.2256150  40.3539490  25.8718020  17.9803820
  42.9070930  23.3944280   8.3389410  43.3000500  23.7116480   7.5258100
  43.2687780  22.5156160   8.4533930  34.6418050  22.0616620  16.5289530
  34.2481440  22.9091830  16.7362310  33.9536450  21.4242990  16.7198170
  41.2163100  22.1451590  19.5986270  40.5261420  21.9523790  20.2332360
  41.9595400  22.4286230  20.1310570  31.9435100  19.9845080  10.5619610
  31.6548150  20.5547940  11.2744590  32.6880860  19.5049530  10.9250840
  43.4926070  25.9850030  12.4340190  42.7607190  26.4936840  12.7830290
  43.0950410  25.1680010  12.1328970  39.9303460  22.6604230  10.8392680
  39.9339520  22.2194180   9.9897220  40.8254580  22.9821560  10.9464500
  35.7805840  22.5430720   9.7986890  35.4405890  23.0205950  10.5553940
  35.0183160  22.0895840   9.4387990  39.9923610  23.6616310   3.8299440
  40.1136430  23.6202790   4.7785260  39.6072120  24.5240460   3.6746170
  43.9551980  21.4383710  11.8463130  43.9724720  21.8892360  12.6904980
  43.7067560  20.5389350  12.0596570  39.0045110  25.9717450   3.2282740
  38.4362010  25.5235700   2.6018650  39.7134110  26.3310230   2.6947890
  47.3822730  18.8515890  17.6849510  47.7068500  18.1205550  18.2107490
  47.4179240  18.5329530  16.7830500  34.0814290  29.8729470  17.1049470
  33.6969080  29.2323140  17.7032430  34.3926480  30.5765590  17.6744200
  40.2311430  26.7206010  12.5858090  40.5981560  26.2464580  13.3319430
  40.0416490  27.5947580  12.9266430  33.0951920  21.4649700   8.7151560
  32.8098840  21.1005370   9.5530180  33.0330780  20.7330160   8.1014700
  38.0210800  25.7614650  14.9042300  37.7167870  26.6406630  15.1292660
  38.9757260  25.8214440  14.9399740  36.5492590  29.9675640   5.5009150
  35.7754850  29.4273260   5.3407870  37.2787220  29.4482250   5.1626910
  47.3080570  28.9641000  11.2935540  48.0279690  29.4596290  10.9031650
  47.1062390  28.2858890  10.6489410  42.7690510  20.3578960   5.4364930
  41.9555120  19.8592130   5.3610240  42.5752460  21.1977210   5.0201280
  42.6899370  29.0350060  17.1804540  42.6236680  28.1145730  16.9262130
  42.0604510  29.1325500  17.8949180  45.4838900  24.7298610   3.7327090
  46.3718520  25.0415840   3.5578430  45.4543990  23.8570860   3.3407670
  36.5929990  29.6356020   9.1387960  37.1108660  28.8324280   9.0844850
  36.1414010  29.5735160   9.9804790  41.4799490  30.9022300   4.4115260
  41.8215190  31.6464530   3.9158580  40.6512200  31.2153420   4.7740090
  34.0774530  26.6017390  16.0513660  33.7189470  27.2671240  16.6387000
  33.7829090  25.7700940  16.4226280  37.2787650  27.0601630  18.9353210
  36.9787790  27.2058810  18.0381030  38.0498890  26.5006920  18.8426600
  42.6216100  31.8570630  16.9308340  42.6360640  30.9251590  16.7127250
  41.9141200  31.9430390  17.5698110  47.7553170  26.0410450   3.2006950
  47.6716890  26.4724670   2.3503390  48.4747360  26.5008800   3.6333770
  48.8327310  28.4977970  16.2776920  48.1075500  29.0906750  16.0806310
  49.3602770  28.4901510  15.4790290  48.7840420  32.8952710   5.9289080
  48.1416580  32.2408330   6.2032800  48.3971080  33.3007800   5.1529750
  44.3626900  30.2238140   9.7760770  44.7150720  29.6266270   9.1162140
  43.4789230  29.8982370   9.9469020  40.4490180  30.9835830   7.1831180
  41.1361310  31.5305040   7.5638770  39.6622600  31.5276560   7.2180790
  32.5882580  26.6008650   2.6748260  33.4577430  26.8833450   2.9584180
  32.0972900  27.4144520   2.5597070  39.7517390  27.9881860   6.7956540
  40.2080170  28.7987110   7.0216730  39.4005600  27.6705000   7.6275030
  42.0550000  33.4988200  14.0248840  42.6992220  33.7047580  14.7022260
  42.4179440  32.7376600  13.5719690  35.6529170  18.3319510   7.2679060
  35.5243800  18.3237410   8.2163980  34.8291190  18.6702600   6.9170070
  43.3282080  31.5020550  12.7426290  43.9704310  30.8013710  12.8558460
  43.8531430  32.2818990  12.5623180  47.1737800  31.7869170   2.4665430
  46.9475380  31.0699610   3.0590070  46.7834000  31.5381610   1.6287180
  45.1019700  32.3015450  15.9462350  45.4375940  32.8882140  16.6240270
  44.1820040  32.1708160  16.1760140  32.9553830  35.8136030   3.2409890
  33.3151470  36.4125370   2.5867160  32.8146170  36.3595920   4.0144920
  32.6523100  20.0910630  16.7285760  31.9381620  20.2907550  17.3338370
  33.0718140  19.3150200  17.1000560  46.7554050  29.7041110   4.1279590
  46.4675750  30.1653800   4.9157470  47.5506220  29.2438880   4.3963810
  32.9395690  34.0790890  17.7152290  33.0486810  33.1385630  17.5747680
  32.2876250  34.3445640  17.0666020  40.9308280  32.3506780  19.1150410
  40.6105150  31.6316020  19.6596100  40.2566640  33.0261850  19.1886470
  38.9722450  33.1967230   4.0583560  38.9632550  33.9296920   3.4428070
  38.0520810  32.9498810   4.1510520  34.5729090  28.4182120   4.8030320
  33.9657040  29.1581020   4.8125620  35.0478440  28.5081480   3.9768520
  44.1461880  22.5832940  14.4787210  44.5142700  21.7628150  14.8066780
  43.2860080  22.6434830  14.8942860  47.5123910  21.5389880   5.2874770
  46.8837070  21.6435550   4.5733000  47.0175830  21.7586660   6.0768650
  41.9582050  33.2595470   2.7208750  42.0594030  33.0559460   1.7910730
  41.0583790  33.0053750   2.9256530  39.4807940  23.8175830   6.7032650
  38.7724090  24.2862170   7.1446260  39.7652420  23.1597840   7.3377840
  41.1063870  25.2372530  14.7025180  41.6049120  25.7118350  15.3677030
  41.2486820  24.3136050  14.9095210  43.5123370  20.5426490   8.1428440
  43.3891150  20.5612620   7.1937950  44.4607930  20.5905430   8.2626840
  40.6000160  35.7781790   7.4156420  40.8541660  35.7403180   6.4935790
  39.6512640  35.6515120   7.4084670  37.6842960  22.1260910   4.0783360
  38.5333490  22.5631060   4.0123550  37.3174230  22.4381170   4.9055420
  48.3130730  21.4540490  15.5453570  47.8104330  22.1945890  15.8847380
  49.1287390  21.8424490  15.2290360  46.6052740  26.6973670   8.9914930
  45.6642880  26.7123900   9.1662620  46.9196810  25.9109630   9.4375230
  36.5834380  28.3793270   2.5518890  37.3497650  28.2674630   3.1144320
  36.6609070  27.6831240   1.8995660  35.2781140  25.8118340   3.2351780
  35.3584730  24.8645850   3.3469180  36.1700890  26.1425220   3.3412440
  48.6078320  33.8682520  10.6669190  48.7325740  34.6913690  11.1393000
  49.4743880  33.6573250  10.3193340  36.0795850  35.9613730  10.3386320
  36.8158330  35.4129190  10.6094890  36.4636770  36.8269740  10.1992310
  32.9641330  32.0287300   6.2127830  32.0381110  32.2708440   6.2033240
  33.4297760  32.8561560   6.0912580  35.0854130  35.1459800  19.5271900
  35.8866860  35.4671850  19.9407300  34.5705950  34.7855380  20.2491810
  39.1898160  35.1344040   2.1611890  39.9826770  35.4232870   1.7093680
  38.6702510  34.7036210   1.4824370  43.9218760  31.2539670  19.4747310
  43.3156920  31.2771270  18.7343060  43.6172870  30.5222710  20.0114560
  45.3519130  34.9819960  18.0856720  46.3040880  34.8977980  18.0356960
  45.2047350  35.6461670  18.7590510  48.2428330  34.3614170   3.5848630
  47.9569840  33.9479310   2.7702810  48.0447880  35.2901880   3.4649150
  32.8051940  27.6333260  18.4707950  33.3090960  27.0540540  19.0424180
  32.0659360  27.9173490  19.0084320  39.8589880  29.0404250  18.0043470
  39.0935550  29.6089250  17.9198140  40.0405840  28.7480460  17.1111700
  42.9478290  29.4167480   2.6296230  42.3988390  29.8636780   3.2738970
  43.5697550  28.9116730   3.1533900  47.0013230  30.7709580  18.5618490
  47.7422700  31.1085340  18.0585950  46.2385910  30.9401640  18.0088260
  34.8375020  25.7762850  19.3658020  34.8780360  25.4776720  20.2743250
  35.6920520  26.1770460  19.2065540  38.6153410  28.3758400   4.5261530
  39.0369830  28.2098270   5.3692920  38.7404250  27.5658630   4.0316670
  36.7780830  24.3554950  17.3332510  36.2477290  23.8645900  16.7055850
  37.4468900  24.7839150  16.7990440  45.6758890  28.8224410  17.0973700
  46.0899910  28.9769490  17.9464120  44.7409890  28.9479630  17.2599480
  46.1481060  26.1620570  19.1012850  46.7301830  25.4072890  19.0133330
  46.3242830  26.6928010  18.3244330  37.2653130  21.3217320  17.4129800
  37.1710000  20.7038070  16.6880670  36.6850520  22.0483610  17.1859710
  40.0314570  19.8790560  14.4457190  39.5831870  19.9014820  13.6002740
  39.3979770  19.4809580  15.0427490  40.4374120  28.7744890  15.0669630
  40.8562230  29.6177620  14.8945870  39.5182750  28.9116930  14.8376410
  42.7738020  26.5061070  16.4507470  42.8934230  25.9102210  17.1902310
  43.6332020  26.5430760  16.0308770  45.1125920  27.0598260  15.0269980
  44.5861140  27.5840880  14.4235120  45.4557260  27.6925650  15.6579710
  38.2881540  35.0797900  16.1827360  37.7502630  35.8043960  15.8636060
  38.5415500  34.6028240  15.3924700  39.5406790  23.0482420  17.7083290
  40.1306480  22.7398270  18.3961110  38.7227030  22.5762170  17.8643190
  44.3600220  22.6648230  17.9416310  43.6715740  22.0029770  17.8766300
  45.0806240  22.2186500  18.3864770  44.9900620  19.2599860   4.0006570
  45.2702910  18.4167760   4.3565990  44.2166350  19.4922970   4.5145320
  41.1443750  36.3149110  16.4414010  41.0702450  37.2184250  16.7486380
  40.2422590  35.9961010  16.4136080  39.5280040  20.4926870   2.4453770
  39.1802040  19.8150860   1.8656220  39.7292810  20.0316380   3.2597160
  41.6929080  35.4807620   4.0640370  42.5879870  35.8192590   4.0859130
  41.7246710  34.7587030   3.4364650  35.3325240  30.8534670   2.2927370
  35.7700110  31.3964340   2.9484950  35.8172970  30.0281620   2.3023710
  32.5471040  33.6423700   9.7447630  32.8774050  32.7744760   9.5126270
  32.9762040  33.8482220  10.5752590  37.1432960  31.9732710   7.4049600
  36.8428500  31.8497680   8.3053510  37.0370450  31.1141300   6.9965330
  33.0361250  34.5094290  12.4829260  32.5992240  34.6895090  13.3153410
  33.6038930  35.2668910  12.3410980  48.6723430  34.0111290  16.7706570
  48.0725420  34.0703850  16.0270490  48.8017330  33.0716270  16.9003420
  49.9124880  31.7529110   2.1076280  49.0817840  31.8205760   2.5783510
  50.0896710  32.6433230   1.8043140  49.3681340  28.4976590   4.6110480
  50.1300250  29.0673240   4.7170170  49.3835710  27.9303790   5.3818790
  32.8685680  27.0214520   8.8418140  32.2134520  26.7526160   8.1977840
  33.7063630  26.9119000   8.3920120  50.3741310  29.3526690   9.4552410
  50.7450140  28.5694010   9.0488380  51.0143240  30.0415790   9.2769710
  47.3575070  30.7363270  14.8682730  46.5434910  31.1660430  15.1308520
  47.7649270  31.3481680  14.2551780  49.4200510  28.7910960   1.7683000
  49.6949350  29.6989840   1.6402220  49.2311250  28.7273490   2.7044990
  45.8176120  21.8155810   3.0636630  46.2361000  21.6286790   2.2233290
  45.5112180  20.9634860   3.3739560  49.3165850  26.7279950   6.7612430
  48.9409450  25.9607880   6.3293720  48.5868970  27.1102650   7.2487360
  33.9061610  27.4067090  13.3821480  34.2734650  27.3194490  14.2617500
  33.3372430  26.6433640  13.2828340  48.7065470  25.8751470  16.3951950
  48.4751560  25.6464220  15.4949900  48.9670020  26.7951020  16.3496840
  33.4577610  24.3176180  17.2879900  32.5633660  24.2842940  17.6273610
  33.9975160  24.5162970  18.0531150  47.1453540  21.1007900  19.1731650
  48.0223720  21.1091300  19.5565650  47.1574380  20.3638740  18.5624000
  32.0823760  24.2313450   4.7843470  31.1787840  24.4943650   4.6095130
  32.5664380  24.5024620   4.0043430  48.5916810  24.9537440  10.0619670
  49.1154290  24.4600090   9.4309840  49.1776230  25.0887800  10.8067240
  48.7706530  25.0377310  13.5839220  47.8209240  25.0040850  13.6984210
  48.9519540  25.9477420  13.3488990  34.6250970  23.2878990   2.6937850
  35.3342670  22.8662210   2.2085130  33.9090910  23.3554220   2.0621200
  48.0816780  24.2110790   6.0012080  48.5775900  23.9781660   6.7860960
  47.8832850  23.3722630   5.5849720  33.9617320  18.5924510  11.6363120
  34.6093510  18.0421890  11.1958280  34.3819160  18.8467660  12.4578930
  49.5103940  22.8471740   8.5349760  49.4003220  22.6927780   9.4732030
  50.2711530  22.3192680   8.2925170  47.8569660  18.7865870  14.9932760
  48.4941880  19.4000010  15.3591950  48.0044550  18.8226530  14.0481990
  50.3994210  20.6779660   1.7755900  51.3243520  20.5460840   1.5674190
  50.3770000  20.7572480   2.7292350  50.4732700  21.4490320   4.4012610
  49.6784200  21.3835440   4.9305520  50.6775980  22.3840960   4.3897960
  47.4151120  35.4881870   8.3951000  48.0110190  35.1666440   7.7185420
  47.6729270  35.0153690   9.1864270  33.7149320  18.7480180  14.3788440
  33.3664140  19.2044000  15.1446620  33.3837020  17.8537310  14.4610870
  35.3213690  31.9199780  18.5441630  35.2783320  31.5492690  19.4256090
  35.4524700  32.8577350  18.6843450  39.0219720  33.4759370  14.1451350
  38.7811080  33.7433930  13.2581870  39.9622360  33.6465100  14.2002210
  41.2274140  19.9392060  17.9007860  41.1663030  20.5313890  18.6503270
  42.1674520  19.8318020  17.7558120  43.8648700  19.5962120  17.5400150
  44.4789110  19.9141410  16.8781230  44.4098260  19.1110710  18.1596010
  50.2823880  35.4953750  14.9461990  49.7882160  35.8922620  14.2289120
  49.6737170  34.8702960  15.3399270  34.3869960  18.2756380  17.6539210
  34.9352950  18.0944430  16.8905320  34.4525270  17.4850490  18.1895520
  35.1601720  34.8662030  15.6639410  34.5662040  34.7346730  16.4029450
  35.1525560  34.0300170  15.1981510  44.6056740  18.1594260  13.8669440
  43.7316580  18.4929370  13.6642370  44.4967490  17.6867440  14.6921310
  45.5128720  20.3665130  15.2511160  45.1842080  19.5516890  14.8712890
  46.4611020  20.3234940  15.1276850  47.9663330  36.1377170  12.2248730
  47.5066300  36.8892980  11.8506750  47.3375790  35.4183640  12.1663530
  34.7913950  32.2320410  14.6147450  34.0648010  31.6125700  14.5473400
  34.8523100  32.6261020  13.7445530  38.3959050  34.4465410  11.3996860
  38.9124070  33.8352770  10.8745120  39.0456430  34.9494190  11.8907870
  41.1354550  35.3373900  12.2265840  41.4232360  35.0828200  11.3498850
  41.6477770  34.7851260  12.8171410  42.3531560  19.0764100  12.8062350
  41.5703350  19.5509600  13.0859110  42.0594490  18.1718930  12.6975530
  46.9052630  19.7787200  10.8511440  47.3460720  19.7232300  10.0033040
  46.6360220  20.6945210  10.9221620  48.7691200  19.4102440   8.8620260
  48.7079600  18.4663660   8.7151280  49.5483230  19.5182530   9.4073720
  33.0743950  35.5494800   7.8244210  32.9065990  34.9165480   8.5226100
  32.2078460  35.7554200   7.4738400  33.6971970  19.3811580   5.3276070
  34.4551330  19.4940460   4.7540100  33.2349140  20.2180780   5.2819500
  40.2385780  21.4950850   8.3178380  39.4260290  21.1207740   7.9774260
  40.7427420  20.7395930   8.6199570  44.7410760  18.1593300   9.5561450
  45.3440130  18.7313510  10.0309970  44.0003750  18.7232740   9.3335350
  47.8845360  18.5614860   4.8301730  48.0795990  19.4598310   5.0969160
  47.0975230  18.3301940   5.3234680  34.6806650  34.2428030   5.2694350
  34.1554270  34.6236060   4.5656310  34.6051230  34.8678800   5.9904060
  36.0697120  19.9075630   3.8678040  36.5989880  19.1205430   3.7385990
  36.7025440  20.5866820   4.1013570  38.2634960  19.6450770   6.9223430
  37.6337700  18.9438080   7.0893560  37.7240100  20.4054900   6.7056590
  41.2026910  36.2590000  19.5934040  42.1294220  36.0234270  19.6370000
  41.1877340  37.0862000  19.1120070  49.4371970  35.8015570   6.5908290
  49.6124160  35.1153310   5.9469210  48.7393540  36.3262620   6.1984960
  38.3890520  18.9234750  19.3575920  38.1074790  19.4268350  18.5936740
  38.7710220  18.1256500  18.9918050  37.2799620  36.1910410   4.1443600
  38.0118440  35.9069690   3.5967490  37.5393290  35.9523690   5.0342980
  36.4414410  32.3075140   4.1489930  35.8123290  32.7760240   4.6975760
  36.5562240  31.4624360   4.5836120  44.9905980  18.3388330  19.9356390
  44.8771430  18.6582940  20.8307910  45.8075720  18.7400840  19.6393670
  47.7704470  35.4859860  19.4175080  48.5629790  34.9909090  19.2101040
  48.0637620  36.1650000  20.0250690  43.8964130   7.5837310  65.3965090
  43.8158180   6.6691920  65.1256800  43.4828550   8.0804380  64.6904800
  42.0282170   9.3616330  67.2774360  41.2524270   8.8816770  67.5672930
  42.6795100   8.6821980  67.1030520  36.0448000   9.6736140  68.1550120
  35.2132880   9.4184850  68.5546630  36.6528980   9.7446910  68.8908040
  46.0489600  13.7676520  66.0573490  45.5871130  12.9963760  66.3860660
  46.8615150  13.7942590  66.5625940  36.0249260  13.7076230  68.3508140
  36.3277300  12.8173970  68.1718360  36.7692850  14.2646450  68.1230390
  34.4539950   4.6338030  61.9392510  33.5656650   4.9754000  61.8372390
  34.7381140   4.4338350  61.0473340  32.4172960   7.2343680  67.8232210
  32.9889070   6.4665880  67.8235850  32.4174500   7.5332440  66.9138820
  42.2752910  16.0534530  65.6777480  41.6564350  16.5092030  65.1071920
  43.1304690  16.2085990  65.2767180  41.4691160  12.0373520  67.2844520
  41.3999440  11.0963460  67.1233650  42.2311020  12.1274930  67.8567090
  33.6597830   2.6428040  69.6101140  33.4800670   1.7453790  69.8903900
  33.2577910   3.1899910  70.2848090  42.4996330   4.8443900  67.5113450
  42.8761150   3.9715780  67.3987120  42.4015840   5.1802600  66.6203890
  36.6301340   3.2169530  62.9730890  36.7368090   4.1173260  63.2799650
  35.7193700   3.1687500  62.6825540  46.2820450   2.3394340  64.4441790
  47.1030070   1.8490910  64.4867270  46.3154530   2.9292000  65.1973630
  34.2784500   5.1388540  68.2183480  34.9594610   5.4026910  68.8370880
  33.9632550   4.2989410  68.5521490  38.4709070   6.1855900  67.3056070
  38.9787290   6.6836870  67.9461090  39.0022310   5.4091100  67.1295430
  50.5720000   4.3561090  71.0085420  49.8672170   4.7442800  70.4900530
  50.8377920   5.0511380  71.6106350  43.1416260  10.9373770  63.0709390
  42.5233530  11.4023220  62.5072110  43.6539510  11.6301250  63.4878900
  38.0048020  10.4649640  69.7492990  37.6717400  11.0918560  70.3914060
  38.1814700  10.9911520  68.9694660  46.5181930   4.2794720  67.2169330
  45.8137500   4.5679610  67.7972440  46.8794090   5.0894830  66.8568890
  36.4360500   2.5364420  69.5789940  36.7777310   3.3806470  69.2843810
  35.4976310   2.6848160  69.6955280  37.2167120  12.4330440  71.5642170
  37.8341120  13.1081520  71.2826620  36.3560240  12.8418420  71.4729670
  32.5099460  11.6230300  60.4449020  32.1327440  12.1117400  59.7133920
  32.7672530  12.2955580  61.0755550  48.1344710  13.8969850  69.4796810
  47.4508230  14.5668960  69.4713480  48.6739000  14.0950500  68.7141670
  49.5868850   3.7249510  67.6078540  48.6393760   3.7588490  67.7393970
  49.9118840   4.5388460  67.9927900  45.6703450  15.7413980  68.1941990
  45.6830610  15.3376270  67.3264250  45.1178670  16.5161270  68.0903420
  46.9648870  12.4630200  63.2832160  46.8545200  11.5204530  63.4081580
  46.9617120  12.8245840  64.1694920  45.0688890  10.6443820  69.5224600
  45.4857680  10.4303930  68.6878060  45.7928710  10.9016610  70.0933220
  42.5069150   8.0895520  62.6394650  41.5798430   8.0232900  62.8683120
  42.6593970   9.0275650  62.5249890  42.4938230   4.3612520  59.6361810
  41.5541900   4.5226480  59.7214270  42.8121490   5.0798200  59.0897800
  49.0150990   9.0431040  69.6140840  48.1869620   9.1124130  69.1390970
  49.6101470   9.6285350  69.1456670  46.5366440   9.6515820  63.1429900
  45.9178860   9.3135370  62.4956200  46.5190890   9.0075580  63.8509090
  45.9793000   5.8300360  70.5595710  45.5664180   6.6554070  70.8135700
  45.2468950   5.2445400  70.3672070  38.1125790   8.6160260  65.4214380
  37.7082790   7.9037510  64.9260280  38.1988910   8.2713500  66.3102420
  38.5807490  12.3027820  67.5853590  38.2835780  11.6973290  66.9061370
  39.5307310  12.3405130  67.4742950  36.8254410   5.3903470  69.2013420
  37.3769000   5.4998810  68.4266670  37.3397920   5.7641070  69.9168650
  46.6693100  15.8759690  71.2476690  46.1923660  16.6831880  71.0549300
  45.9854890  15.2238020  71.4002900  37.6725920  12.0409510  74.2361390
  36.7754450  12.2649480  74.4834790  37.6978790  12.1644450  73.2872790
  44.7131140   8.8902630  60.1502650  45.1524420   8.0525060  60.0040470
  45.4259560   9.5232030  60.2366790  36.4997140   8.9122830  72.8118760
  36.3604910   9.7845630  73.1806160  35.6178500   8.5695640  72.6666700
  42.8226520  13.8298700  64.1183890  43.2622430  14.5723030  63.7039280
  42.7613410  14.0725270  65.0422850  38.2977490  14.8544530  75.0203910
  38.2692920  15.2587480  74.1532340  38.1342460  13.9254890  74.8575510
  34.8130420   7.5105240  62.9221030  34.6928020   8.2367330  62.3102300
  34.5031310   6.7408150  62.4448940  32.4515790  10.6820380  68.7289670
  32.5296210  10.8169150  67.7845390  33.0657470   9.9736270  68.9217790
  33.6963420  12.3820570  65.1395850  33.2891500  12.5235160  64.2849450
  34.5876430  12.0980730  64.9367060  49.6525560  12.8284480  73.4768090
  49.7788620  12.5896360  72.5585270  49.6946940  11.9969020  73.9490170
  43.5142300  16.5312480  72.0462900  44.0286970  16.4420490  72.8485330
  42.6711380  16.8772180  72.3390810  45.4896700  16.8167820  61.4746900
  45.3297840  16.5270760  62.3728730  45.3243410  16.0407950  60.9392130
  37.9685080  16.5966350  63.2518520  37.7927560  15.6801890  63.0386320
  37.1140820  16.9553640  63.4916320  45.1922830  14.3255380  60.0344900
  44.4987990  14.3232670  59.3747180  45.9345690  13.9014700  59.6039070
  44.7572760  15.9518090  64.1093390  45.2129710  15.1707470  64.4232010
  45.0965280  16.6624910  64.6534570  49.5049570   4.8816940  74.4417830
  48.8893840   5.3896610  73.9133290  49.1845990   3.9815270  74.3843770
  32.5075310  11.7234550  71.2684130  32.6706350  11.2539910  70.4503500
  32.9727760  11.2158110  71.9332970  41.5663890   3.7208830  71.9080020
  41.1043260   3.9291850  72.7199960  41.1642000   2.9068180  71.6050690
  46.5668400   4.9417780  73.0376680  45.7161990   4.6423530  73.3585750
  46.4070190   5.1859790  72.1260500  43.6618110   6.4419530  75.1375470
  43.9871520   5.6083280  74.7977700  44.4498440   6.9648050  75.2853800
  37.0708300   5.9773880  64.0325950  36.8449220   5.7611050  64.9372570
  36.2900830   6.4102340  63.6871920  44.3006060   5.9837250  62.6316600
  43.7014950   6.7073050  62.4480220  44.8485670   5.9214030  61.8493050
  39.5107510   6.8759460  74.6986220  39.4151110   5.9354190  74.5486620
  40.3539490   7.0974530  74.3034290  42.9070930   4.6200790  64.6619880
  43.3000500   4.9372990  63.8488570  43.2687780   3.7412670  64.7764400
  34.6418050   3.2873130  72.8520000  34.2481440   4.1348340  73.0592780
  33.9536450   2.6499500  73.0428640  32.1305330   5.1521710  58.0952800
  32.0480000   6.0952470  58.2367790  31.7788390   5.0096620  57.2165150
  43.4926070   7.2106540  68.7570660  42.7607190   7.7193350  69.1060760
  43.0950410   6.3936520  68.4559440  39.9303460   3.8860740  67.1623150
  39.9339520   3.4450690  66.3127690  40.8254580   4.2078070  67.2694970
  35.7805840   3.7687230  66.1217360  35.4405890   4.2462460  66.8784410
  35.0183160   3.3152350  65.7618460  39.9923610   4.8872820  60.1529910
  40.1136430   4.8459300  61.1015730  39.6072120   5.7496970  59.9976640
  43.9551980   2.6640220  68.1693600  43.9724720   3.1148870  69.0135450
  43.7067560   1.7645860  68.3827040  39.0045110   7.1973960  59.5513210
  38.4362010   6.7492210  58.9249120  39.7134110   7.5566740  59.0178360
  34.0814290  11.0985980  73.4279940  33.6969080  10.4579650  74.0262900
  34.3926480  11.8022100  73.9974670  40.2311430   7.9462520  68.9088560
  40.5981560   7.4721090  69.6549900  40.0416490   8.8204090  69.2496900
  33.0951920   2.6906210  65.0382030  32.8098840   2.3261880  65.8760650
  33.0330780   1.9586670  64.4245170  38.0210800   6.9871160  71.2272770
  37.7167870   7.8663140  71.4523130  38.9757260   7.0470950  71.2630210
  36.5492590  11.1932150  61.8239620  35.7754850  10.6529770  61.6638340
  37.2787220  10.6738760  61.4857380  47.3080570  10.1897510  67.6166010
  48.0279690  10.6852800  67.2262120  47.1062390   9.5115400  66.9719880
  42.6899370  10.2606570  73.5035010  42.6236680   9.3402240  73.2492600
  42.0604510  10.3582010  74.2179650  45.4838900   5.9555120  60.0557560
  46.3718520   6.2672350  59.8808900  45.4543990   5.0827370  59.6638140
  36.5929990  10.8612530  65.4618430  37.1108660  10.0580790  65.4075320
  36.1414010  10.7991670  66.3035260  41.4799490  12.1278810  60.7345730
  41.8215190  12.8721040  60.2389050  40.6512200  12.4409930  61.0970560
  34.0774530   7.8273900  72.3744130  33.7189470   8.4927750  72.9617470
  33.7829090   6.9957450  72.7456750  37.2787650   8.2858140  75.2583680
  36.9787790   8.4315320  74.3611500  38.0498890   7.7263430  75.1657070
  42.6216100  13.0827140  73.2538810  42.6360640  12.1508100  73.0357720
  41.9141200  13.1686900  73.8928580  47.7553170   7.2666960  59.5237420
  47.6716890   7.6981180  58.6733860  48.4747360   7.7265310  59.9564240
  48.8327310   9.7234480  72.6007390  48.1075500  10.3163260  72.4036780
  49.3602770   9.7158020  71.8020760  48.7840420  14.1209220  62.2519550
  48.1416580  13.4664840  62.5263270  48.3971080  14.5264310  61.4760220
  44.3626900  11.4494650  66.0991240  44.7150720  10.8522780  65.4392610
  43.4789230  11.1238880  66.2699490  40.4490180  12.2092340  63.5061650
  41.1361310  12.7561550  63.8869240  39.6622600  12.7533070  63.5411260
  32.5882580   7.8265160  58.9978730  33.4577430   8.1089960  59.2814650
  32.0972900   8.6401030  58.8827540  39.7517390   9.2138370  63.1187010
  40.2080170  10.0243620  63.3447200  39.4005600   8.8961510  63.9505500
  42.0550000  14.7244710  70.3479310  42.6992220  14.9304090  71.0252730
  42.4179440  13.9633110  69.8950160  43.3282080  12.7277060  69.0656760
  43.9704310  12.0270220  69.1788930  43.8531430  13.5075500  68.8853650
  47.1737800  13.0125680  58.7895900  46.9475380  12.2956120  59.3820540
  46.7834000  12.7638120  57.9517650  45.1019700  13.5271960  72.2692820
  45.4375940  14.1138650  72.9470740  44.1820040  13.3964670  72.4990610
  32.9553830  17.0392540  59.5640360  33.3151470  17.6381880  58.9097630
  32.8146170  17.5852430  60.3375390  46.7554050  10.9297620  60.4510060
  46.4675750  11.3910310  61.2387940  47.5506220  10.4695390  60.7194280
  32.9395690  15.3047400  74.0382760  33.0486810  14.3642140  73.8978150
  32.2876250  15.5702150  73.3896490  40.9308280  13.5763290  75.4380880
  40.6105150  12.8572530  75.9826570  40.2566640  14.2518360  75.5116940
  38.9722450  14.4223740  60.3814030  38.9632550  15.1553430  59.7658540
  38.0520810  14.1755320  60.4740990  34.5729090   9.6438630  61.1260790
  33.9657040  10.3837530  61.1356090  35.0478440   9.7337990  60.2998990
  44.1461880   3.8089450  70.8017680  44.5142700   2.9884660  71.1297250
  43.2860080   3.8691340  71.2173330  47.5123910   2.7646390  61.6105240
  46.8837070   2.8692060  60.8963470  47.0175830   2.9843170  62.3999120
  41.9582050  14.4851980  59.0439220  42.0594030  14.2815970  58.1141200
  41.0583790  14.2310260  59.2487000  39.4807940   5.0432340  63.0263120
  38.7724090   5.5118680  63.4676730  39.7652420   4.3854350  63.6608310
  41.1063870   6.4629040  71.0255650  41.6049120   6.9374860  71.6907500
  41.2486820   5.5392560  71.2325680  43.5123370   1.7683000  64.4658910
  43.3891150   1.7869130  63.5168420  44.4607930   1.8161940  64.5857310
  40.6000160  17.0038300  63.7386890  40.8541660  16.9659690  62.8166260
  39.6512640  16.8771630  63.7315140  37.6842960   3.3517420  60.4013830
  38.5333490   3.7887570  60.3354020  37.3174230   3.6637680  61.2285890
  48.3130730   2.6797000  71.8684040  47.8104330   3.4202400  72.2077850
  49.1287390   3.0681000  71.5520830  46.6052740   7.9230180  65.3145400
  45.6642880   7.9380410  65.4893090  46.9196810   7.1366140  65.7605700
  36.5834380   9.6049780  58.8749360  37.3497650   9.4931140  59.4374790
  36.6609070   8.9087750  58.2226130  35.2781140   7.0374850  59.5582250
  35.3584730   6.0902360  59.6699650  36.1700890   7.3681730  59.6642910
  48.6078320  15.0939030  66.9899660  48.7325740  15.9170200  67.4623470
  49.4743880  14.8829760  66.6423810  36.0795850  17.1870240  66.6616790
  36.8158330  16.6385700  66.9325360  36.4636770  18.0526250  66.5222780
  32.9641330  13.2543810  62.5358300  32.0381110  13.4964950  62.5263710
  33.4297760  14.0818070  62.4143050  39.1898160  16.3600550  58.4842360
  39.9826770  16.6489380  58.0324150  38.6702510  15.9292720  57.8054840
  45.3519130  16.2076470  74.4087190  46.3040880  16.1234490  74.3587430
  45.2047350  16.8718180  75.0820980  48.2428330  15.5870680  59.9079100
  47.9569840  15.1735820  59.0933280  48.0447880  16.5158390  59.7879620
  32.8051940   8.8589770  74.7938420  33.3090960   8.2797050  75.3654650
  32.0659360   9.1430000  75.3314790  39.7075560  11.5803960  58.3484710
  39.6026200  10.9656310  59.0746090  39.5399780  11.0569850  57.5647720
  39.8589880  10.2660760  74.3273940  39.0935550  10.8345760  74.2428610
  40.0405840   9.9736970  73.4342170  42.9478290  10.6423990  58.9526700
  42.3988390  11.0893290  59.5969440  43.5697550  10.1373240  59.4764370
  47.0013230  11.9966090  74.8848960  47.7422700  12.3341850  74.3816420
  46.2385910  12.1658150  74.3318730  38.6153410   9.6014910  60.8492000
  39.0369830   9.4354780  61.6923390  38.7404250   8.7915140  60.3547140
  36.7780830   5.5811460  73.6562980  36.2477290   5.0902410  73.0286320
  37.4468900   6.0095660  73.1220910  41.1281050   8.6252520  58.0969100
  41.6486710   7.9101540  57.7310250  41.7749450   9.2638390  58.3969610
  45.6758890  10.0480920  73.4204170  46.0899910  10.2026000  74.2694590
  44.7409890  10.1736140  73.5829950  46.1481060   7.3877080  75.4243320
  46.7301830   6.6329400  75.3363800  46.3242830   7.9184520  74.6474800
  37.2653130   2.5473830  73.7360270  37.1710000   1.9294580  73.0111140
  36.6850520   3.2740120  73.5090180  40.4374120  10.0001400  71.3900100
  40.8562230  10.8434130  71.2176340  39.5182750  10.1373440  71.1606880
  42.7738020   7.7317580  72.7737940  42.8934230   7.1358720  73.5132780
  43.6332020   7.7687270  72.3539240  45.1125920   8.2854770  71.3500450
  44.5861140   8.8097390  70.7465590  45.4557260   8.9182160  71.9810180
  37.5112310   5.6748140  57.7950160  37.3101370   4.8115500  58.1563500
  37.3404360   5.5881500  56.8571760  38.2881540  16.3054410  72.5057830
  37.7502630  17.0300470  72.1866530  38.5415500  15.8284750  71.7155170
  39.5406790   4.2738930  74.0313760  40.1306480   3.9654780  74.7191580
  38.7227030   3.8018680  74.1873660  44.3600220   3.8904740  74.2646780
  43.6715740   3.2286280  74.1996770  45.0806240   3.4443010  74.7095240
  36.3095110   2.7748760  57.7828040  36.6121010   2.7816190  56.8747190
  37.0489700   2.4246620  58.2795700  41.1443750  17.5405620  72.7644480
  41.0702450  18.4440760  73.0716850  40.2422590  17.2217520  72.7366550
  41.6929080  16.7064130  60.3870840  42.5879870  17.0449100  60.4089600
  41.7246710  15.9843540  59.7595120  35.3325240  12.0791180  58.6157840
  35.7700110  12.6220850  59.2715420  35.8172970  11.2538130  58.6254180
  32.5471040  14.8680210  66.0678100  32.8774050  14.0001270  65.8356740
  32.9762040  15.0738730  66.8983060  37.1432960  13.1989220  63.7280070
  36.8428500  13.0754190  64.6283980  37.0370450  12.3397810  63.3195800
  33.0361250  15.7350800  68.8059730  32.5992240  15.9151600  69.6383880
  33.6038930  16.4925420  68.6641450  48.6723430  15.2367800  73.0937040
  48.0725420  15.2960360  72.3500960  48.8017330  14.2972780  73.2233890
  49.9124880  12.9785620  58.4306750  49.0817840  13.0462270  58.9013980
  50.0896710  13.8689740  58.1273610  49.3681340   9.7233100  60.9340950
  50.1300250  10.2929750  61.0400640  49.3835710   9.1560300  61.7049260
  32.8685680   8.2471030  65.1648610  32.2134520   7.9782670  64.5208310
  33.7063630   8.1375510  64.7150590  50.3741310  10.5783200  65.7782880
  50.7450140   9.7950520  65.3718850  51.0143240  11.2672300  65.6000180
  47.3575070  11.9619780  71.1913200  46.5434910  12.3916940  71.4538990
  47.7649270  12.5738190  70.5782250  49.4200510  10.0167470  58.0913470
  49.6949350  10.9246350  57.9632690  49.2311250   9.9530000  59.0275460
  45.8176120   3.0412320  59.3867100  46.2361000   2.8543300  58.5463760
  45.5112180   2.1891370  59.6970030  49.3165850   7.9536460  63.0842900
  48.9409450   7.1864390  62.6524190  48.5868970   8.3359160  63.5717830
  33.9061610   8.6323600  69.7051950  34.2734650   8.5451000  70.5847970
  33.3372430   7.8690150  69.6058810  48.7065470   7.1007980  72.7182420
  48.4751560   6.8720730  71.8180370  48.9670020   8.0207530  72.6727310
  33.4577610   5.5432690  73.6110370  32.5633660   5.5099450  73.9504080
  33.9975160   5.7419480  74.3761620  47.1453540   2.3264410  75.4962120
  48.0223720   2.3347810  75.8796120  47.1574380   1.5895250  74.8854470
  32.0823760   5.4569960  61.1073940  31.1787840   5.7200160  60.9325600
  32.5664380   5.7281130  60.3273900  48.5916810   6.1793950  66.3850140
  49.1154290   5.6856600  65.7540310  49.1776230   6.3144310  67.1297710
  48.7706530   6.2633820  69.9069690  47.8209240   6.2297360  70.0214680
  48.9519540   7.1733930  69.6719460  34.6250970   4.5135500  59.0168320
  35.3342670   4.0918720  58.5315600  33.9090910   4.5810730  58.3851670
  48.0816780   5.4367300  62.3242550  48.5775900   5.2038170  63.1091430
  47.8832850   4.5979140  61.9080190  49.5103940   4.0728250  64.8580230
  49.4003220   3.9184290  65.7962500  50.2711530   3.5449190  64.6155640
  50.3994210   1.9036170  58.0986370  51.3243520   1.7717350  57.8904660
  50.3770000   1.9828990  59.0522820  50.4732700   2.6746830  60.7243080
  49.6784200   2.6091950  61.2535990  50.6775980   3.6097470  60.7128430
  47.4151120  16.7138380  64.7181470  48.0110190  16.3922950  64.0415890
  47.6729270  16.2410200  65.5094740  35.3213690  13.1456290  74.8672100
  35.2783320  12.7749200  75.7486560  35.4524700  14.0833860  75.0073920
  39.0219720  14.7015880  70.4681820  38.7811080  14.9690440  69.5812340
  39.9622360  14.8721610  70.5232680  50.2823880  16.7210260  71.2692460
  49.7882160  17.1179130  70.5519590  49.6737170  16.0959470  71.6629740
  35.1601720  16.0918540  71.9869880  34.5662040  15.9603240  72.7259920
  35.1525560  15.2556680  71.5211980  47.9663330  17.3633680  68.5479200
  47.5066300  18.1149490  68.1737220  47.3375790  16.6440150  68.4894000
  34.7913950  13.4576920  70.9377920  34.0648010  12.8382210  70.8703870
  34.8523100  13.8517530  70.0676000  38.3959050  15.6721920  67.7227330
  38.9124070  15.0609280  67.1975590  39.0456430  16.1750700  68.2138340
  41.1354550  16.5630410  68.5496310  41.4232360  16.3084710  67.6729320
  41.6477770  16.0107770  69.1401880  33.0743950  16.7751310  64.1474680
  32.9065990  16.1421990  64.8456570  32.2078460  16.9810710  63.7968870
  40.2385780   2.7207360  64.6408850  39.4260290   2.3464250  64.3004730
  40.7427420   1.9652440  64.9430040  34.6806650  15.4684540  61.5924820
  34.1554270  15.8492570  60.8886780  34.6051230  16.0935310  62.3134530
  41.2026910  17.4846510  75.9164510  42.1294220  17.2490780  75.9600470
  41.1877340  18.3118510  75.4350540  49.4371970  17.0272080  62.9138760
  49.6124160  16.3409820  62.2699680  48.7393540  17.5519130  62.5215430
  37.2799620  17.4166920  60.4674070  38.0118440  17.1326200  59.9197960
  37.5393290  17.1780200  61.3573450  36.4414410  13.5331650  60.4720400
  35.8123290  14.0016750  61.0206230  36.5562240  12.6880870  60.9066590
  43.8964130   7.5837310  46.6221600  43.8158180   6.6691920  46.3513310
  43.4828550   8.0804380  45.9161310  42.0282170   9.3616330  48.5030870
  41.2524270   8.8816770  48.7929440  42.6795100   8.6821980  48.3287030
  36.0448000   9.6736140  49.3806630  35.2132880   9.4184850  49.7803140
  36.6528980   9.7446910  50.1164550  46.0489600  13.7676520  47.2830000
  45.5871130  12.9963760  47.6117170  46.8615150  13.7942590  47.7882450
  36.0249260  13.7076230  49.5764650  36.3277300  12.8173970  49.3974870
  36.7692850  14.2646450  49.3486900  34.4539950   4.6338030  43.1649020
  33.5656650   4.9754000  43.0628900  34.7381140   4.4338350  42.2729850
  32.4172960   7.2343680  49.0488720  32.9889070   6.4665880  49.0492360
  32.4174500   7.5332440  48.1395330  42.2752910  16.0534530  46.9033990
  41.6564350  16.5092030  46.3328430  43.1304690  16.2085990  46.5023690
  41.4691160  12.0373520  48.5101030  41.3999440  11.0963460  48.3490160
  42.2311020  12.1274930  49.0823600  33.6597830   2.6428040  50.8357650
  33.4800670   1.7453790  51.1160410  33.2577910   3.1899910  51.5104600
  42.4996330   4.8443900  48.7369960  42.8761150   3.9715780  48.6243630
  42.4015840   5.1802600  47.8460400  36.6301340   3.2169530  44.1987400
  36.7368090   4.1173260  44.5056160  35.7193700   3.1687500  43.9082050
  46.2820450   2.3394340  45.6698300  47.1030070   1.8490910  45.7123780
  46.3154530   2.9292000  46.4230140  34.2784500   5.1388540  49.4439990
  34.9594610   5.4026910  50.0627390  33.9632550   4.2989410  49.7778000
  38.4709070   6.1855900  48.5312580  38.9787290   6.6836870  49.1717600
  39.0022310   5.4091100  48.3551940  50.5720000   4.3561090  52.2341930
  49.8672170   4.7442800  51.7157040  50.8377920   5.0511380  52.8362860
  43.1416260  10.9373770  44.2965900  42.5233530  11.4023220  43.7328620
  43.6539510  11.6301250  44.7135410  38.0048020  10.4649640  50.9749500
  37.6717400  11.0918560  51.6170570  38.1814700  10.9911520  50.1951170
  46.5181930   4.2794720  48.4425840  45.8137500   4.5679610  49.0228950
  46.8794090   5.0894830  48.0825400  36.4360500   2.5364420  50.8046450
  36.7777310   3.3806470  50.5100320  35.4976310   2.6848160  50.9211790
  37.2167120  12.4330440  52.7898680  37.8341120  13.1081520  52.5083130
  36.3560240  12.8418420  52.6986180  32.5099460  11.6230300  41.6705530
  32.1327440  12.1117400  40.9390430  32.7672530  12.2955580  42.3012060
  48.1344710  13.8969850  50.7053320  47.4508230  14.5668960  50.6969990
  48.6739000  14.0950500  49.9398180  49.5868850   3.7249510  48.8335050
  48.6393760   3.7588490  48.9650480  49.9118840   4.5388460  49.2184410
  45.6703450  15.7413980  49.4198500  45.6830610  15.3376270  48.5520760
  45.1178670  16.5161270  49.3159930  46.9648870  12.4630200  44.5088670
  46.8545200  11.5204530  44.6338090  46.9617120  12.8245840  45.3951430
  45.0688890  10.6443820  50.7481110  45.4857680  10.4303930  49.9134570
  45.7928710  10.9016610  51.3189730  42.5069150   8.0895520  43.8651160
  41.5798430   8.0232900  44.0939630  42.6593970   9.0275650  43.7506400
  42.4938230   4.3612520  40.8618320  41.5541900   4.5226480  40.9470780
  42.8121490   5.0798200  40.3154310  49.0150990   9.0431040  50.8397350
  48.1869620   9.1124130  50.3647480  49.6101470   9.6285350  50.3713180
  46.5366440   9.6515820  44.3686410  45.9178860   9.3135370  43.7212710
  46.5190890   9.0075580  45.0765600  45.9793000   5.8300360  51.7852220
  45.5664180   6.6554070  52.0392210  45.2468950   5.2445400  51.5928580
  38.1125790   8.6160260  46.6470890  37.7082790   7.9037510  46.1516790
  38.1988910   8.2713500  47.5358930  38.5807490  12.3027820  48.8110100
  38.2835780  11.6973290  48.1317880  39.5307310  12.3405130  48.6999460
  36.8254410   5.3903470  50.4269930  37.3769000   5.4998810  49.6523180
  37.3397920   5.7641070  51.1425160  46.6693100  15.8759690  52.4733200
  46.1923660  16.6831880  52.2805810  45.9854890  15.2238020  52.6259410
  37.6725920  12.0409510  55.4617900  36.7754450  12.2649480  55.7091300
  37.6978790  12.1644450  54.5129300  44.7131140   8.8902630  41.3759160
  45.1524420   8.0525060  41.2296980  45.4259560   9.5232030  41.4623300
  36.4997140   8.9122830  54.0375270  36.3604910   9.7845630  54.4062670
  35.6178500   8.5695640  53.8923210  42.8226520  13.8298700  45.3440400
  43.2622430  14.5723030  44.9295790  42.7613410  14.0725270  46.2679360
  38.2977490  14.8544530  56.2460420  38.2692920  15.2587480  55.3788850
  38.1342460  13.9254890  56.0832020  34.8130420   7.5105240  44.1477540
  34.6928020   8.2367330  43.5358810  34.5031310   6.7408150  43.6705450
  50.2492310  15.6371630  57.5424590  50.7252030  16.1154520  58.2213670
  50.8699470  15.5689120  56.8170090  32.4515790  10.6820380  49.9546180
  32.5296210  10.8169150  49.0101900  33.0657470   9.9736270  50.1474300
  33.6963420  12.3820570  46.3652360  33.2891500  12.5235160  45.5105960
  34.5876430  12.0980730  46.1623570  49.6525560  12.8284480  54.7024600
  49.7788620  12.5896360  53.7841780  49.6946940  11.9969020  55.1746680
  43.5142300  16.5312480  53.2719410  44.0286970  16.4420490  54.0741840
  42.6711380  16.8772180  53.5647320  45.4896700  16.8167820  42.7003410
  45.3297840  16.5270760  43.5985240  45.3243410  16.0407950  42.1648640
  37.9685080  16.5966350  44.4775030  37.7927560  15.6801890  44.2642830
  37.1140820  16.9553640  44.7172830  45.1922830  14.3255380  41.2601410
  44.4987990  14.3232670  40.6003690  45.9345690  13.9014700  40.8295580
  44.7572760  15.9518090  45.3349900  45.2129710  15.1707470  45.6488520
  45.0965280  16.6624910  45.8791080  49.5049570   4.8816940  55.6674340
  48.8893840   5.3896610  55.1389800  49.1845990   3.9815270  55.6100280
  32.5075310  11.7234550  52.4940640  32.6706350  11.2539910  51.6760010
  32.9727760  11.2158110  53.1589480  41.5663890   3.7208830  53.1336530
  41.1043260   3.9291850  53.9456470  41.1642000   2.9068180  52.8307200
  46.5668400   4.9417780  54.2633190  45.7161990   4.6423530  54.5842260
  46.4070190   5.1859790  53.3517010  43.6618110   6.4419530  56.3631980
  43.9871520   5.6083280  56.0234210  44.4498440   6.9648050  56.5110310
  37.0708300   5.9773880  45.2582460  36.8449220   5.7611050  46.1629080
  36.2900830   6.4102340  44.9128430  44.3006060   5.9837250  43.8573110
  43.7014950   6.7073050  43.6736730  44.8485670   5.9214030  43.0749560
  39.5107510   6.8759460  55.9242730  39.4151110   5.9354190  55.7743130
  40.3539490   7.0974530  55.5290800  42.9070930   4.6200790  45.8876390
  43.3000500   4.9372990  45.0745080  43.2687780   3.7412670  46.0020910
  34.6418050   3.2873130  54.0776510  34.2481440   4.1348340  54.2849290
  33.9536450   2.6499500  54.2685150  41.2163100   3.3708100  57.1473250
  40.5261420   3.1780300  57.7819340  41.9595400   3.6542740  57.6797550
  32.1305330   5.1521710  39.3209310  32.0480000   6.0952470  39.4624300
  31.7788390   5.0096620  38.4421660  43.4926070   7.2106540  49.9827170
  42.7607190   7.7193350  50.3317270  43.0950410   6.3936520  49.6815950
  39.9303460   3.8860740  48.3879660  39.9339520   3.4450690  47.5384200
  40.8254580   4.2078070  48.4951480  35.7805840   3.7687230  47.3473870
  35.4405890   4.2462460  48.1040920  35.0183160   3.3152350  46.9874970
  39.9923610   4.8872820  41.3786420  40.1136430   4.8459300  42.3272240
  39.6072120   5.7496970  41.2233150  43.9551980   2.6640220  49.3950110
  43.9724720   3.1148870  50.2391960  43.7067560   1.7645860  49.6083550
  39.0045110   7.1973960  40.7769720  38.4362010   6.7492210  40.1505630
  39.7134110   7.5566740  40.2434870  34.0814290  11.0985980  54.6536450
  33.6969080  10.4579650  55.2519410  34.3926480  11.8022100  55.2231180
  40.2311430   7.9462520  50.1345070  40.5981560   7.4721090  50.8806410
  40.0416490   8.8204090  50.4753410  33.0951920   2.6906210  46.2638540
  32.8098840   2.3261880  47.1017160  33.0330780   1.9586670  45.6501680
  38.0210800   6.9871160  52.4529280  37.7167870   7.8663140  52.6779640
  38.9757260   7.0470950  52.4886720  36.5492590  11.1932150  43.0496130
  35.7754850  10.6529770  42.8894850  37.2787220  10.6738760  42.7113890
  47.3080570  10.1897510  48.8422520  48.0279690  10.6852800  48.4518630
  47.1062390   9.5115400  48.1976390  42.6899370  10.2606570  54.7291520
  42.6236680   9.3402240  54.4749110  42.0604510  10.3582010  55.4436160
  45.4838900   5.9555120  41.2814070  46.3718520   6.2672350  41.1065410
  45.4543990   5.0827370  40.8894650  36.5929990  10.8612530  46.6874940
  37.1108660  10.0580790  46.6331830  36.1414010  10.7991670  47.5291770
  41.4799490  12.1278810  41.9602240  41.8215190  12.8721040  41.4645560
  40.6512200  12.4409930  42.3227070  34.0774530   7.8273900  53.6000640
  33.7189470   8.4927750  54.1873980  33.7829090   6.9957450  53.9713260
  37.2787650   8.2858140  56.4840190  36.9787790   8.4315320  55.5868010
  38.0498890   7.7263430  56.3913580  42.6216100  13.0827140  54.4795320
  42.6360640  12.1508100  54.2614230  41.9141200  13.1686900  55.1185090
  47.7553170   7.2666960  40.7493930  47.6716890   7.6981180  39.8990370
  48.4747360   7.7265310  41.1820750  48.8327310   9.7234480  53.8263900
  48.1075500  10.3163260  53.6293290  49.3602770   9.7158020  53.0277270
  48.7840420  14.1209220  43.4776060  48.1416580  13.4664840  43.7519780
  48.3971080  14.5264310  42.7016730  44.3626900  11.4494650  47.3247750
  44.7150720  10.8522780  46.6649120  43.4789230  11.1238880  47.4956000
  40.4490180  12.2092340  44.7318160  41.1361310  12.7561550  45.1125750
  39.6622600  12.7533070  44.7667770  32.5882580   7.8265160  40.2235240
  33.4577430   8.1089960  40.5071160  32.0972900   8.6401030  40.1084050
  39.7517390   9.2138370  44.3443520  40.2080170  10.0243620  44.5703710
  39.4005600   8.8961510  45.1762010  42.0550000  14.7244710  51.5735820
  42.6992220  14.9304090  52.2509240  42.4179440  13.9633110  51.1206670
  43.3282080  12.7277060  50.2913270  43.9704310  12.0270220  50.4045440
  43.8531430  13.5075500  50.1110160  47.1737800  13.0125680  40.0152410
  46.9475380  12.2956120  40.6077050  46.7834000  12.7638120  39.1774160
  45.1019700  13.5271960  53.4949330  45.4375940  14.1138650  54.1727250
  44.1820040  13.3964670  53.7247120  32.9553830  17.0392540  40.7896870
  33.3151470  17.6381880  40.1354140  32.8146170  17.5852430  41.5631900
  46.7554050  10.9297620  41.6766570  46.4675750  11.3910310  42.4644450
  47.5506220  10.4695390  41.9450790  32.9395690  15.3047400  55.2639270
  33.0486810  14.3642140  55.1234660  32.2876250  15.5702150  54.6153000
  40.9308280  13.5763290  56.6637390  40.6105150  12.8572530  57.2083080
  40.2566640  14.2518360  56.7373450  38.9722450  14.4223740  41.6070540
  38.9632550  15.1553430  40.9915050  38.0520810  14.1755320  41.6997500
  34.5729090   9.6438630  42.3517300  33.9657040  10.3837530  42.3612600
  35.0478440   9.7337990  41.5255500  44.1461880   3.8089450  52.0274190
  44.5142700   2.9884660  52.3553760  43.2860080   3.8691340  52.4429840
  47.5123910   2.7646390  42.8361750  46.8837070   2.8692060  42.1219980
  47.0175830   2.9843170  43.6255630  41.9582050  14.4851980  40.2695730
  42.0594030  14.2815970  39.3397710  41.0583790  14.2310260  40.4743510
  39.4807940   5.0432340  44.2519630  38.7724090   5.5118680  44.6933240
  39.7652420   4.3854350  44.8864820  41.1063870   6.4629040  52.2512160
  41.6049120   6.9374860  52.9164010  41.2486820   5.5392560  52.4582190
  43.5123370   1.7683000  45.6915420  43.3891150   1.7869130  44.7424930
  44.4607930   1.8161940  45.8113820  40.6000160  17.0038300  44.9643400
  40.8541660  16.9659690  44.0422770  39.6512640  16.8771630  44.9571650
  37.6842960   3.3517420  41.6270340  38.5333490   3.7887570  41.5610530
  37.3174230   3.6637680  42.4542400  48.3130730   2.6797000  53.0940550
  47.8104330   3.4202400  53.4334360  49.1287390   3.0681000  52.7777340
  46.6052740   7.9230180  46.5401910  45.6642880   7.9380410  46.7149600
  46.9196810   7.1366140  46.9862210  36.5834380   9.6049780  40.1005870
  37.3497650   9.4931140  40.6631300  36.6609070   8.9087750  39.4482640
  35.2781140   7.0374850  40.7838760  35.3584730   6.0902360  40.8956160
  36.1700890   7.3681730  40.8899420  48.6078320  15.0939030  48.2156170
  48.7325740  15.9170200  48.6879980  49.4743880  14.8829760  47.8680320
  36.0795850  17.1870240  47.8873300  36.8158330  16.6385700  48.1581870
  36.4636770  18.0526250  47.7479290  32.9641330  13.2543810  43.7614810
  32.0381110  13.4964950  43.7520220  33.4297760  14.0818070  43.6399560
  35.0854130  16.3716310  57.0758880  35.8866860  16.6928360  57.4894280
  34.5705950  16.0111890  57.7978790  39.1898160  16.3600550  39.7098870
  39.9826770  16.6489380  39.2580660  38.6702510  15.9292720  39.0311350
  43.9218760  12.4796180  57.0234290  43.3156920  12.5027780  56.2830040
  43.6172870  11.7479220  57.5601540  45.3519130  16.2076470  55.6343700
  46.3040880  16.1234490  55.5843940  45.2047350  16.8718180  56.3077490
  48.2428330  15.5870680  41.1335610  47.9569840  15.1735820  40.3189790
  48.0447880  16.5158390  41.0136130  32.8051940   8.8589770  56.0194930
  33.3090960   8.2797050  56.5911160  32.0659360   9.1430000  56.5571300
  39.7075560  11.5803960  39.5741220  39.6026200  10.9656310  40.3002600
  39.5399780  11.0569850  38.7904230  39.8589880  10.2660760  55.5530450
  39.0935550  10.8345760  55.4685120  40.0405840   9.9736970  54.6598680
  42.9478290  10.6423990  40.1783210  42.3988390  11.0893290  40.8225950
  43.5697550  10.1373240  40.7020880  47.0013230  11.9966090  56.1105470
  47.7422700  12.3341850  55.6072930  46.2385910  12.1658150  55.5575240
  34.8375020   7.0019360  56.9145000  34.8780360   6.7033230  57.8230230
  35.6920520   7.4026970  56.7552520  38.6153410   9.6014910  42.0748510
  39.0369830   9.4354780  42.9179900  38.7404250   8.7915140  41.5803650
  36.7780830   5.5811460  54.8819490  36.2477290   5.0902410  54.2542830
  37.4468900   6.0095660  54.3477420  41.1281050   8.6252520  39.3225610
  41.6486710   7.9101540  38.9566760  41.7749450   9.2638390  39.6226120
  45.6758890  10.0480920  54.6460680  46.0899910  10.2026000  55.4951100
  44.7409890  10.1736140  54.8086460  46.1481060   7.3877080  56.6499830
  46.7301830   6.6329400  56.5620310  46.3242830   7.9184520  55.8731310
  37.2653130   2.5473830  54.9616780  37.1710000   1.9294580  54.2367650
  36.6850520   3.2740120  54.7346690  40.4374120  10.0001400  52.6156610
  40.8562230  10.8434130  52.4432850  39.5182750  10.1373440  52.3863390
  42.7738020   7.7317580  53.9994450  42.8934230   7.1358720  54.7389290
  43.6332020   7.7687270  53.5795750  45.1125920   8.2854770  52.5756960
  44.5861140   8.8097390  51.9722100  45.4557260   8.9182160  53.2066690
  37.5112310   5.6748140  39.0206670  37.3101370   4.8115500  39.3820010
  37.3404360   5.5881500  38.0828270  38.2881540  16.3054410  53.7314340
  37.7502630  17.0300470  53.4123040  38.5415500  15.8284750  52.9411680
  39.5406790   4.2738930  55.2570270  40.1306480   3.9654780  55.9448090
  38.7227030   3.8018680  55.4130170  44.3600220   3.8904740  55.4903290
  43.6715740   3.2286280  55.4253280  45.0806240   3.4443010  55.9351750
  36.3095110   2.7748760  39.0084550  36.6121010   2.7816190  38.1003700
  37.0489700   2.4246620  39.5052210  41.1443750  17.5405620  53.9900990
  41.0702450  18.4440760  54.2973360  40.2422590  17.2217520  53.9623060
  41.6929080  16.7064130  41.6127350  42.5879870  17.0449100  41.6346110
  41.7246710  15.9843540  40.9851630  35.3325240  12.0791180  39.8414350
  35.7700110  12.6220850  40.4971930  35.8172970  11.2538130  39.8510690
  32.5471040  14.8680210  47.2934610  32.8774050  14.0001270  47.0613250
  32.9762040  15.0738730  48.1239570  37.1432960  13.1989220  44.9536580
  36.8428500  13.0754190  45.8540490  37.0370450  12.3397810  44.5452310
  33.0361250  15.7350800  50.0316240  32.5992240  15.9151600  50.8640390
  33.6038930  16.4925420  49.8897960  48.6723430  15.2367800  54.3193550
  48.0725420  15.2960360  53.5757470  48.8017330  14.2972780  54.4490400
  49.9124880  12.9785620  39.6563260  49.0817840  13.0462270  40.1270490
  50.0896710  13.8689740  39.3530120  49.3681340   9.7233100  42.1597460
  50.1300250  10.2929750  42.2657150  49.3835710   9.1560300  42.9305770
  32.8685680   8.2471030  46.3905120  32.2134520   7.9782670  45.7464820
  33.7063630   8.1375510  45.9407100  50.3741310  10.5783200  47.0039390
  50.7450140   9.7950520  46.5975360  51.0143240  11.2672300  46.8256690
  47.3575070  11.9619780  52.4169710  46.5434910  12.3916940  52.6795500
  47.7649270  12.5738190  51.8038760  49.4200510  10.0167470  39.3169980
  49.6949350  10.9246350  39.1889200  49.2311250   9.9530000  40.2531970
  45.8176120   3.0412320  40.6123610  46.2361000   2.8543300  39.7720270
  45.5112180   2.1891370  40.9226540  49.3165850   7.9536460  44.3099410
  48.9409450   7.1864390  43.8780700  48.5868970   8.3359160  44.7974340
  33.9061610   8.6323600  50.9308460  34.2734650   8.5451000  51.8104480
  33.3372430   7.8690150  50.8315320  48.7065470   7.1007980  53.9438930
  48.4751560   6.8720730  53.0436880  48.9670020   8.0207530  53.8983820
  33.4577610   5.5432690  54.8366880  32.5633660   5.5099450  55.1760590
  33.9975160   5.7419480  55.6018130  47.1453540   2.3264410  56.7218630
  48.0223720   2.3347810  57.1052630  47.1574380   1.5895250  56.1110980
  32.0823760   5.4569960  42.3330450  31.1787840   5.7200160  42.1582110
  32.5664380   5.7281130  41.5530410  48.5916810   6.1793950  47.6106650
  49.1154290   5.6856600  46.9796820  49.1776230   6.3144310  48.3554220
  48.7706530   6.2633820  51.1326200  47.8209240   6.2297360  51.2471190
  48.9519540   7.1733930  50.8975970  34.6250970   4.5135500  40.2424830
  35.3342670   4.0918720  39.7572110  33.9090910   4.5810730  39.6108180
  48.0816780   5.4367300  43.5499060  48.5775900   5.2038170  44.3347940
  47.8832850   4.5979140  43.1336700  49.5103940   4.0728250  46.0836740
  49.4003220   3.9184290  47.0219010  50.2711530   3.5449190  45.8412150
  50.3994210   1.9036170  39.3242880  51.3243520   1.7717350  39.1161170
  50.3770000   1.9828990  40.2779330  50.4732700   2.6746830  41.9499590
  49.6784200   2.6091950  42.4792500  50.6775980   3.6097470  41.9384940
  47.4151120  16.7138380  45.9437980  48.0110190  16.3922950  45.2672400
  47.6729270  16.2410200  46.7351250  35.3213690  13.1456290  56.0928610
  35.2783320  12.7749200  56.9743070  35.4524700  14.0833860  56.2330430
  39.0219720  14.7015880  51.6938330  38.7811080  14.9690440  50.8068850
  39.9622360  14.8721610  51.7489190  50.2823880  16.7210260  52.4948970
  49.7882160  17.1179130  51.7776100  49.6737170  16.0959470  52.8886250
  35.1601720  16.0918540  53.2126390  34.5662040  15.9603240  53.9516430
  35.1525560  15.2556680  52.7468490  47.9663330  17.3633680  49.7735710
  47.5066300  18.1149490  49.3993730  47.3375790  16.6440150  49.7150510
  34.7913950  13.4576920  52.1634430  34.0648010  12.8382210  52.0960380
  34.8523100  13.8517530  51.2932510  38.3959050  15.6721920  48.9483840
  38.9124070  15.0609280  48.4232100  39.0456430  16.1750700  49.4394850
  41.1354550  16.5630410  49.7752820  41.4232360  16.3084710  48.8985830
  41.6477770  16.0107770  50.3658390  33.0743950  16.7751310  45.3731190
  32.9065990  16.1421990  46.0713080  32.2078460  16.9810710  45.0225380
  40.2385780   2.7207360  45.8665360  39.4260290   2.3464250  45.5261240
  40.7427420   1.9652440  46.1686550  34.6806650  15.4684540  42.8181330
  34.1554270  15.8492570  42.1143290  34.6051230  16.0935310  43.5391040
  41.2026910  17.4846510  57.1421020  42.1294220  17.2490780  57.1856980
  41.1877340  18.3118510  56.6607050  49.4371970  17.0272080  44.1395270
  49.6124160  16.3409820  43.4956190  48.7393540  17.5519130  43.7471940
  37.2799620  17.4166920  41.6930580  38.0118440  17.1326200  41.1454470
  37.5393290  17.1780200  42.5829960  36.4414410  13.5331650  41.6976910
  35.8123290  14.0016750  42.2462740  36.5562240  12.6880870  42.1323100
  47.7704470  16.7116370  56.9662060  48.5629790  16.2165600  56.7588020
  48.0637620  17.3906510  57.5737670  43.8964130   7.5837310  27.8478110
  43.8158180   6.6691920  27.5769820  43.4828550   8.0804380  27.1417820
  42.0282170   9.3616330  29.7287380  41.2524270   8.8816770  30.0185950
  42.6795100   8.6821980  29.5543540  36.0448000   9.6736140  30.6063140
  35.2132880   9.4184850  31.0059650  36.6528980   9.7446910  31.3421060
  46.0489600  13.7676520  28.5086510  45.5871130  12.9963760  28.8373680
  46.8615150  13.7942590  29.0138960  36.0249260  13.7076230  30.8021160
  36.3277300  12.8173970  30.6231380  36.7692850  14.2646450  30.5743410
  34.4539950   4.6338030  24.3905530  33.5656650   4.9754000  24.2885410
  34.7381140   4.4338350  23.4986360  32.4172960   7.2343680  30.2745230
  32.9889070   6.4665880  30.2748870  32.4174500   7.5332440  29.3651840
  42.2752910  16.0534530  28.1290500  41.6564350  16.5092030  27.5584940
  43.1304690  16.2085990  27.7280200  41.4691160  12.0373520  29.7357540
  41.3999440  11.0963460  29.5746670  42.2311020  12.1274930  30.3080110
  33.6597830   2.6428040  32.0614160  33.4800670   1.7453790  32.3416920
  33.2577910   3.1899910  32.7361110  42.4996330   4.8443900  29.9626470
  42.8761150   3.9715780  29.8500140  42.4015840   5.1802600  29.0716910
  36.6301340   3.2169530  25.4243910  36.7368090   4.1173260  25.7312670
  35.7193700   3.1687500  25.1338560  46.2820450   2.3394340  26.8954810
  47.1030070   1.8490910  26.9380290  46.3154530   2.9292000  27.6486650
  34.2784500   5.1388540  30.6696500  34.9594610   5.4026910  31.2883900
  33.9632550   4.2989410  31.0034510  38.4709070   6.1855900  29.7569090
  38.9787290   6.6836870  30.3974110  39.0022310   5.4091100  29.5808450
  50.5720000   4.3561090  33.4598440  49.8672170   4.7442800  32.9413550
  50.8377920   5.0511380  34.0619370  43.1416260  10.9373770  25.5222410
  42.5233530  11.4023220  24.9585130  43.6539510  11.6301250  25.9391920
  38.0048020  10.4649640  32.2006010  37.6717400  11.0918560  32.8427080
  38.1814700  10.9911520  31.4207680  46.5181930   4.2794720  29.6682350
  45.8137500   4.5679610  30.2485460  46.8794090   5.0894830  29.3081910
  36.4360500   2.5364420  32.0302960  36.7777310   3.3806470  31.7356830
  35.4976310   2.6848160  32.1468300  37.2167120  12.4330440  34.0155190
  37.8341120  13.1081520  33.7339640  36.3560240  12.8418420  33.9242690
  32.5099460  11.6230300  22.8962040  32.1327440  12.1117400  22.1646940
  32.7672530  12.2955580  23.5268570  48.1344710  13.8969850  31.9309830
  47.4508230  14.5668960  31.9226500  48.6739000  14.0950500  31.1654690
  49.5868850   3.7249510  30.0591560  48.6393760   3.7588490  30.1906990
  49.9118840   4.5388460  30.4440920  45.6703450  15.7413980  30.6455010
  45.6830610  15.3376270  29.7777270  45.1178670  16.5161270  30.5416440
  46.9648870  12.4630200  25.7345180  46.8545200  11.5204530  25.8594600
  46.9617120  12.8245840  26.6207940  45.0688890  10.6443820  31.9737620
  45.4857680  10.4303930  31.1391080  45.7928710  10.9016610  32.5446240
  42.5069150   8.0895520  25.0907670  41.5798430   8.0232900  25.3196140
  42.6593970   9.0275650  24.9762910  42.4938230   4.3612520  22.0874830
  41.5541900   4.5226480  22.1727290  42.8121490   5.0798200  21.5410820
  49.0150990   9.0431040  32.0653860  48.1869620   9.1124130  31.5903990
  49.6101470   9.6285350  31.5969690  46.5366440   9.6515820  25.5942920
  45.9178860   9.3135370  24.9469220  46.5190890   9.0075580  26.3022110
  45.9793000   5.8300360  33.0108730  45.5664180   6.6554070  33.2648720
  45.2468950   5.2445400  32.8185090  38.1125790   8.6160260  27.8727400
  37.7082790   7.9037510  27.3773300  38.1988910   8.2713500  28.7615440
  38.5807490  12.3027820  30.0366610  38.2835780  11.6973290  29.3574390
  39.5307310  12.3405130  29.9255970  36.8254410   5.3903470  31.6526440
  37.3769000   5.4998810  30.8779690  37.3397920   5.7641070  32.3681670
  46.6693100  15.8759690  33.6989710  46.1923660  16.6831880  33.5062320
  45.9854890  15.2238020  33.8515920  37.6725920  12.0409510  36.6874410
  36.7754450  12.2649480  36.9347810  37.6978790  12.1644450  35.7385810
  44.7131140   8.8902630  22.6015670  45.1524420   8.0525060  22.4553490
  45.4259560   9.5232030  22.6879810  36.4997140   8.9122830  35.2631780
  36.3604910   9.7845630  35.6319180  35.6178500   8.5695640  35.1179720
  42.8226520  13.8298700  26.5696910  43.2622430  14.5723030  26.1552300
  42.7613410  14.0725270  27.4935870  38.2977490  14.8544530  37.4716930
  38.2692920  15.2587480  36.6045360  38.1342460  13.9254890  37.3088530
  34.8130420   7.5105240  25.3734050  34.6928020   8.2367330  24.7615320
  34.5031310   6.7408150  24.8961960  50.2492310  15.6371630  38.7681100
  50.7252030  16.1154520  39.4470180  50.8699470  15.5689120  38.0426600
  32.4515790  10.6820380  31.1802690  32.5296210  10.8169150  30.2358410
  33.0657470   9.9736270  31.3730810  33.6963420  12.3820570  27.5908870
  33.2891500  12.5235160  26.7362470  34.5876430  12.0980730  27.3880080
  49.6525560  12.8284480  35.9281110  49.7788620  12.5896360  35.0098290
  49.6946940  11.9969020  36.4003190  43.5142300  16.5312480  34.4975920
  44.0286970  16.4420490  35.2998350  42.6711380  16.8772180  34.7903830
  45.4896700  16.8167820  23.9259920  45.3297840  16.5270760  24.8241750
  45.3243410  16.0407950  23.3905150  37.9685080  16.5966350  25.7031540
  37.7927560  15.6801890  25.4899340  37.1140820  16.9553640  25.9429340
  45.1922830  14.3255380  22.4857920  44.4987990  14.3232670  21.8260200
  45.9345690  13.9014700  22.0552090  44.7572760  15.9518090  26.5606410
  45.2129710  15.1707470  26.8745030  45.0965280  16.6624910  27.1047590
  49.5049570   4.8816940  36.8930850  48.8893840   5.3896610  36.3646310
  49.1845990   3.9815270  36.8356790  32.5075310  11.7234550  33.7197150
  32.6706350  11.2539910  32.9016520  32.9727760  11.2158110  34.3845990
  41.5663890   3.7208830  34.3593040  41.1043260   3.9291850  35.1712980
  41.1642000   2.9068180  34.0563710  46.5668400   4.9417780  35.4889700
  45.7161990   4.6423530  35.8098770  46.4070190   5.1859790  34.5773520
  43.6618110   6.4419530  37.5888490  43.9871520   5.6083280  37.2490720
  44.4498440   6.9648050  37.7366820  37.0708300   5.9773880  26.4838970
  36.8449220   5.7611050  27.3885590  36.2900830   6.4102340  26.1384940
  44.3006060   5.9837250  25.0829620  43.7014950   6.7073050  24.8993240
  44.8485670   5.9214030  24.3006070  39.5107510   6.8759460  37.1499240
  39.4151110   5.9354190  36.9999640  40.3539490   7.0974530  36.7547310
  42.9070930   4.6200790  27.1132900  43.3000500   4.9372990  26.3001590
  43.2687780   3.7412670  27.2277420  34.6418050   3.2873130  35.3033020
  34.2481440   4.1348340  35.5105800  33.9536450   2.6499500  35.4941660
  41.2163100   3.3708100  38.3729760  40.5261420   3.1780300  39.0075850
  41.9595400   3.6542740  38.9054060  32.1305330   5.1521710  20.5465820
  32.0480000   6.0952470  20.6880810  31.7788390   5.0096620  19.6678170
  43.4926070   7.2106540  31.2083680  42.7607190   7.7193350  31.5573780
  43.0950410   6.3936520  30.9072460  39.9303460   3.8860740  29.6136170
  39.9339520   3.4450690  28.7640710  40.8254580   4.2078070  29.7207990
  35.7805840   3.7687230  28.5730380  35.4405890   4.2462460  29.3297430
  35.0183160   3.3152350  28.2131480  39.9923610   4.8872820  22.6042930
  40.1136430   4.8459300  23.5528750  39.6072120   5.7496970  22.4489660
  43.9551980   2.6640220  30.6206620  43.9724720   3.1148870  31.4648470
  43.7067560   1.7645860  30.8340060  39.0045110   7.1973960  22.0026230
  38.4362010   6.7492210  21.3762140  39.7134110   7.5566740  21.4691380
  34.0814290  11.0985980  35.8792960  33.6969080  10.4579650  36.4775920
  34.3926480  11.8022100  36.4487690  40.2311430   7.9462520  31.3601580
  40.5981560   7.4721090  32.1062920  40.0416490   8.8204090  31.7009920
  33.0951920   2.6906210  27.4895050  32.8098840   2.3261880  28.3273670
  33.0330780   1.9586670  26.8758190  38.0210800   6.9871160  33.6785790
  37.7167870   7.8663140  33.9036150  38.9757260   7.0470950  33.7143230
  36.5492590  11.1932150  24.2752640  35.7754850  10.6529770  24.1151360
  37.2787220  10.6738760  23.9370400  47.3080570  10.1897510  30.0679030
  48.0279690  10.6852800  29.6775140  47.1062390   9.5115400  29.4232900
  42.6899370  10.2606570  35.9548030  42.6236680   9.3402240  35.7005620
  42.0604510  10.3582010  36.6692670  45.4838900   5.9555120  22.5070580
  46.3718520   6.2672350  22.3321920  45.4543990   5.0827370  22.1151160
  36.5929990  10.8612530  27.9131450  37.1108660  10.0580790  27.8588340
  36.1414010  10.7991670  28.7548280  41.4799490  12.1278810  23.1858750
  41.8215190  12.8721040  22.6902070  40.6512200  12.4409930  23.5483580
  34.0774530   7.8273900  34.8257150  33.7189470   8.4927750  35.4130490
  33.7829090   6.9957450  35.1969770  37.2787650   8.2858140  37.7096700
  36.9787790   8.4315320  36.8124520  38.0498890   7.7263430  37.6170090
  42.6216100  13.0827140  35.7051830  42.6360640  12.1508100  35.4870740
  41.9141200  13.1686900  36.3441600  47.7553170   7.2666960  21.9750440
  47.6716890   7.6981180  21.1246880  48.4747360   7.7265310  22.4077260
  48.8327310   9.7234480  35.0520410  48.1075500  10.3163260  34.8549800
  49.3602770   9.7158020  34.2533780  48.7840420  14.1209220  24.7032570
  48.1416580  13.4664840  24.9776290  48.3971080  14.5264310  23.9273240
  44.3626900  11.4494650  28.5504260  44.7150720  10.8522780  27.8905630
  43.4789230  11.1238880  28.7212510  40.4490180  12.2092340  25.9574670
  41.1361310  12.7561550  26.3382260  39.6622600  12.7533070  25.9924280
  32.5882580   7.8265160  21.4491750  33.4577430   8.1089960  21.7327670
  32.0972900   8.6401030  21.3340560  39.7517390   9.2138370  25.5700030
  40.2080170  10.0243620  25.7960220  39.4005600   8.8961510  26.4018520
  42.0550000  14.7244710  32.7992330  42.6992220  14.9304090  33.4765750
  42.4179440  13.9633110  32.3463180  43.3282080  12.7277060  31.5169780
  43.9704310  12.0270220  31.6301950  43.8531430  13.5075500  31.3366670
  47.1737800  13.0125680  21.2408920  46.9475380  12.2956120  21.8333560
  46.7834000  12.7638120  20.4030670  45.1019700  13.5271960  34.7205840
  45.4375940  14.1138650  35.3983760  44.1820040  13.3964670  34.9503630
  32.9553830  17.0392540  22.0153380  33.3151470  17.6381880  21.3610650
  32.8146170  17.5852430  22.7888410  46.7554050  10.9297620  22.9023080
  46.4675750  11.3910310  23.6900960  47.5506220  10.4695390  23.1707300
  32.9395690  15.3047400  36.4895780  33.0486810  14.3642140  36.3491170
  32.2876250  15.5702150  35.8409510  40.9308280  13.5763290  37.8893900
  40.6105150  12.8572530  38.4339590  40.2566640  14.2518360  37.9629960
  38.9722450  14.4223740  22.8327050  38.9632550  15.1553430  22.2171560
  38.0520810  14.1755320  22.9254010  34.5729090   9.6438630  23.5773810
  33.9657040  10.3837530  23.5869110  35.0478440   9.7337990  22.7512010
  44.1461880   3.8089450  33.2530700  44.5142700   2.9884660  33.5810270
  43.2860080   3.8691340  33.6686350  47.5123910   2.7646390  24.0618260
  46.8837070   2.8692060  23.3476490  47.0175830   2.9843170  24.8512140
  41.9582050  14.4851980  21.4952240  42.0594030  14.2815970  20.5654220
  41.0583790  14.2310260  21.7000020  39.4807940   5.0432340  25.4776140
  38.7724090   5.5118680  25.9189750  39.7652420   4.3854350  26.1121330
  41.1063870   6.4629040  33.4768670  41.6049120   6.9374860  34.1420520
  41.2486820   5.5392560  33.6838700  43.5123370   1.7683000  26.9171930
  43.3891150   1.7869130  25.9681440  44.4607930   1.8161940  27.0370330
  40.6000160  17.0038300  26.1899910  40.8541660  16.9659690  25.2679280
  39.6512640  16.8771630  26.1828160  37.6842960   3.3517420  22.8526850
  38.5333490   3.7887570  22.7867040  37.3174230   3.6637680  23.6798910
  48.3130730   2.6797000  34.3197060  47.8104330   3.4202400  34.6590870
  49.1287390   3.0681000  34.0033850  46.6052740   7.9230180  27.7658420
  45.6642880   7.9380410  27.9406110  46.9196810   7.1366140  28.2118720
  36.5834380   9.6049780  21.3262380  37.3497650   9.4931140  21.8887810
  36.6609070   8.9087750  20.6739150  35.2781140   7.0374850  22.0095270
  35.3584730   6.0902360  22.1212670  36.1700890   7.3681730  22.1155930
  48.6078320  15.0939030  29.4412680  48.7325740  15.9170200  29.9136490
  49.4743880  14.8829760  29.0936830  36.0795850  17.1870240  29.1129810
  36.8158330  16.6385700  29.3838380  36.4636770  18.0526250  28.9735800
  32.9641330  13.2543810  24.9871320  32.0381110  13.4964950  24.9776730
  33.4297760  14.0818070  24.8656070  35.0854130  16.3716310  38.3015390
  35.8866860  16.6928360  38.7150790  34.5705950  16.0111890  39.0235300
  39.1898160  16.3600550  20.9355380  39.9826770  16.6489380  20.4837170
  38.6702510  15.9292720  20.2567860  43.9218760  12.4796180  38.2490800
  43.3156920  12.5027780  37.5086550  43.6172870  11.7479220  38.7858050
  45.3519130  16.2076470  36.8600210  46.3040880  16.1234490  36.8100450
  45.2047350  16.8718180  37.5334000  48.2428330  15.5870680  22.3592120
  47.9569840  15.1735820  21.5446300  48.0447880  16.5158390  22.2392640
  32.8051940   8.8589770  37.2451440  33.3090960   8.2797050  37.8167670
  32.0659360   9.1430000  37.7827810  39.7075560  11.5803960  20.7997730
  39.6026200  10.9656310  21.5259110  39.5399780  11.0569850  20.0160740
  39.8589880  10.2660760  36.7786960  39.0935550  10.8345760  36.6941630
  40.0405840   9.9736970  35.8855190  42.9478290  10.6423990  21.4039720
  42.3988390  11.0893290  22.0482460  43.5697550  10.1373240  21.9277390
  47.0013230  11.9966090  37.3361980  47.7422700  12.3341850  36.8329440
  46.2385910  12.1658150  36.7831750  34.8375020   7.0019360  38.1401510
  34.8780360   6.7033230  39.0486740  35.6920520   7.4026970  37.9809030
  38.6153410   9.6014910  23.3005020  39.0369830   9.4354780  24.1436410
  38.7404250   8.7915140  22.8060160  36.7780830   5.5811460  36.1076000
  36.2477290   5.0902410  35.4799340  37.4468900   6.0095660  35.5733930
  41.1281050   8.6252520  20.5482120  41.6486710   7.9101540  20.1823270
  41.7749450   9.2638390  20.8482630  45.6758890  10.0480920  35.8717190
  46.0899910  10.2026000  36.7207610  44.7409890  10.1736140  36.0342970
  46.1481060   7.3877080  37.8756340  46.7301830   6.6329400  37.7876820
  46.3242830   7.9184520  37.0987820  37.2653130   2.5473830  36.1873290
  37.1710000   1.9294580  35.4624160  36.6850520   3.2740120  35.9603200
  40.4374120  10.0001400  33.8413120  40.8562230  10.8434130  33.6689360
  39.5182750  10.1373440  33.6119900  42.7738020   7.7317580  35.2250960
  42.8934230   7.1358720  35.9645800  43.6332020   7.7687270  34.8052260
  45.1125920   8.2854770  33.8013470  44.5861140   8.8097390  33.1978610
  45.4557260   8.9182160  34.4323200  37.5112310   5.6748140  20.2463180
  37.3101370   4.8115500  20.6076520  37.3404360   5.5881500  19.3084780
  38.2881540  16.3054410  34.9570850  37.7502630  17.0300470  34.6379550
  38.5415500  15.8284750  34.1668190  39.5406790   4.2738930  36.4826780
  40.1306480   3.9654780  37.1704600  38.7227030   3.8018680  36.6386680
  44.3600220   3.8904740  36.7159800  43.6715740   3.2286280  36.6509790
  45.0806240   3.4443010  37.1608260  36.3095110   2.7748760  20.2341060
  36.6121010   2.7816190  19.3260210  37.0489700   2.4246620  20.7308720
  41.1443750  17.5405620  35.2157500  41.0702450  18.4440760  35.5229870
  40.2422590  17.2217520  35.1879570  41.6929080  16.7064130  22.8383860
  42.5879870  17.0449100  22.8602620  41.7246710  15.9843540  22.2108140
  35.3325240  12.0791180  21.0670860  35.7700110  12.6220850  21.7228440
  35.8172970  11.2538130  21.0767200  32.5471040  14.8680210  28.5191120
  32.8774050  14.0001270  28.2869760  32.9762040  15.0738730  29.3496080
  37.1432960  13.1989220  26.1793090  36.8428500  13.0754190  27.0797000
  37.0370450  12.3397810  25.7708820  33.0361250  15.7350800  31.2572750
  32.5992240  15.9151600  32.0896900  33.6038930  16.4925420  31.1154470
  48.6723430  15.2367800  35.5450060  48.0725420  15.2960360  34.8013980
  48.8017330  14.2972780  35.6746910  49.9124880  12.9785620  20.8819770
  49.0817840  13.0462270  21.3527000  50.0896710  13.8689740  20.5786630
  49.3681340   9.7233100  23.3853970  50.1300250  10.2929750  23.4913660
  49.3835710   9.1560300  24.1562280  32.8685680   8.2471030  27.6161630
  32.2134520   7.9782670  26.9721330  33.7063630   8.1375510  27.1663610
  50.3741310  10.5783200  28.2295900  50.7450140   9.7950520  27.8231870
  51.0143240  11.2672300  28.0513200  47.3575070  11.9619780  33.6426220
  46.5434910  12.3916940  33.9052010  47.7649270  12.5738190  33.0295270
  49.4200510  10.0167470  20.5426490  49.6949350  10.9246350  20.4145710
  49.2311250   9.9530000  21.4788480  45.8176120   3.0412320  21.8380120
  46.2361000   2.8543300  20.9976780  45.5112180   2.1891370  22.1483050
  49.3165850   7.9536460  25.5355920  48.9409450   7.1864390  25.1037210
  48.5868970   8.3359160  26.0230850  33.9061610   8.6323600  32.1564970
  34.2734650   8.5451000  33.0360990  33.3372430   7.8690150  32.0571830
  48.7065470   7.1007980  35.1695440  48.4751560   6.8720730  34.2693390
  48.9670020   8.0207530  35.1240330  33.4577610   5.5432690  36.0623390
  32.5633660   5.5099450  36.4017100  33.9975160   5.7419480  36.8274640
  47.1453540   2.3264410  37.9475140  48.0223720   2.3347810  38.3309140
  47.1574380   1.5895250  37.3367490  32.0823760   5.4569960  23.5586960
  31.1787840   5.7200160  23.3838620  32.5664380   5.7281130  22.7786920
  48.5916810   6.1793950  28.8363160  49.1154290   5.6856600  28.2053330
  49.1776230   6.3144310  29.5810730  48.7706530   6.2633820  32.3582710
  47.8209240   6.2297360  32.4727700  48.9519540   7.1733930  32.1232480
  34.6250970   4.5135500  21.4681340  35.3342670   4.0918720  20.9828620
  33.9090910   4.5810730  20.8364690  48.0816780   5.4367300  24.7755570
  48.5775900   5.2038170  25.5604450  47.8832850   4.5979140  24.3593210
  49.5103940   4.0728250  27.3093250  49.4003220   3.9184290  28.2475520
  50.2711530   3.5449190  27.0668660  50.3994210   1.9036170  20.5499390
  51.3243520   1.7717350  20.3417680  50.3770000   1.9828990  21.5035840
  50.4732700   2.6746830  23.1756100  49.6784200   2.6091950  23.7049010
  50.6775980   3.6097470  23.1641450  47.4151120  16.7138380  27.1694490
  48.0110190  16.3922950  26.4928910  47.6729270  16.2410200  27.9607760
  35.3213690  13.1456290  37.3185120  35.2783320  12.7749200  38.1999580
  35.4524700  14.0833860  37.4586940  39.0219720  14.7015880  32.9194840
  38.7811080  14.9690440  32.0325360  39.9622360  14.8721610  32.9745700
  50.2823880  16.7210260  33.7205480  49.7882160  17.1179130  33.0032610
  49.6737170  16.0959470  34.1142760  35.1601720  16.0918540  34.4382900
  34.5662040  15.9603240  35.1772940  35.1525560  15.2556680  33.9725000
  47.9663330  17.3633680  30.9992220  47.5066300  18.1149490  30.6250240
  47.3375790  16.6440150  30.9407020  34.7913950  13.4576920  33.3890940
  34.0648010  12.8382210  33.3216890  34.8523100  13.8517530  32.5189020
  38.3959050  15.6721920  30.1740350  38.9124070  15.0609280  29.6488610
  39.0456430  16.1750700  30.6651360  41.1354550  16.5630410  31.0009330
  41.4232360  16.3084710  30.1242340  41.6477770  16.0107770  31.5914900
  33.0743950  16.7751310  26.5987700  32.9065990  16.1421990  27.2969590
  32.2078460  16.9810710  26.2481890  40.2385780   2.7207360  27.0921870
  39.4260290   2.3464250  26.7517750  40.7427420   1.9652440  27.3943060
  34.6806650  15.4684540  24.0437840  34.1554270  15.8492570  23.3399800
  34.6051230  16.0935310  24.7647550  41.2026910  17.4846510  38.3677530
  42.1294220  17.2490780  38.4113490  41.1877340  18.3118510  37.8863560
  49.4371970  17.0272080  25.3651780  49.6124160  16.3409820  24.7212700
  48.7393540  17.5519130  24.9728450  37.2799620  17.4166920  22.9187090
  38.0118440  17.1326200  22.3710980  37.5393290  17.1780200  23.8086470
  36.4414410  13.5331650  22.9233420  35.8123290  14.0016750  23.4719250
  36.5562240  12.6880870  23.3579610  47.7704470  16.7116370  38.1918570
  48.5629790  16.2165600  37.9844530  48.0637620  17.3906510  38.7994180
  43.8964130   7.5837310   9.0734620  43.8158180   6.6691920   8.8026330
  43.4828550   8.0804380   8.3674330  42.0282170   9.3616330  10.9543890
  41.2524270   8.8816770  11.2442460  42.6795100   8.6821980  10.7800050
  36.0448000   9.6736140  11.8319650  35.2132880   9.4184850  12.2316160
  36.6528980   9.7446910  12.5677570  46.0489600  13.7676520   9.7343020
  45.5871130  12.9963760  10.0630190  46.8615150  13.7942590  10.2395470
  36.0249260  13.7076230  12.0277670  36.3277300  12.8173970  11.8487890
  36.7692850  14.2646450  11.7999920  34.4539950   4.6338030   5.6162040
  33.5656650   4.9754000   5.5141920  34.7381140   4.4338350   4.7242870
  32.4172960   7.2343680  11.5001740  32.9889070   6.4665880  11.5005380
  32.4174500   7.5332440  10.5908350  42.2752910  16.0534530   9.3547010
  41.6564350  16.5092030   8.7841450  43.1304690  16.2085990   8.9536710
  41.4691160  12.0373520  10.9614050  41.3999440  11.0963460  10.8003180
  42.2311020  12.1274930  11.5336620  33.6597830   2.6428040  13.2870670
  33.4800670   1.7453790  13.5673430  33.2577910   3.1899910  13.9617620
  42.4996330   4.8443900  11.1882980  42.8761150   3.9715780  11.0756650
  42.4015840   5.1802600  10.2973420  36.6301340   3.2169530   6.6500420
  36.7368090   4.1173260   6.9569180  35.7193700   3.1687500   6.3595070
  46.2820450   2.3394340   8.1211320  47.1030070   1.8490910   8.1636800
  46.3154530   2.9292000   8.8743160  34.2784500   5.1388540  11.8953010
  34.9594610   5.4026910  12.5140410  33.9632550   4.2989410  12.2291020
  38.4709070   6.1855900  10.9825600  38.9787290   6.6836870  11.6230620
  39.0022310   5.4091100  10.8064960  50.5720000   4.3561090  14.6854950
  49.8672170   4.7442800  14.1670060  50.8377920   5.0511380  15.2875880
  43.1416260  10.9373770   6.7478920  42.5233530  11.4023220   6.1841640
  43.6539510  11.6301250   7.1648430  38.0048020  10.4649640  13.4262520
  37.6717400  11.0918560  14.0683590  38.1814700  10.9911520  12.6464190
  46.5181930   4.2794720  10.8938860  45.8137500   4.5679610  11.4741970
  46.8794090   5.0894830  10.5338420  36.4360500   2.5364420  13.2559470
  36.7777310   3.3806470  12.9613340  35.4976310   2.6848160  13.3724810
  37.2167120  12.4330440  15.2411700  37.8341120  13.1081520  14.9596150
  36.3560240  12.8418420  15.1499200  32.5099460  11.6230300   4.1218550
  32.1327440  12.1117400   3.3903450  32.7672530  12.2955580   4.7525080
  48.1344710  13.8969850  13.1566340  47.4508230  14.5668960  13.1483010
  48.6739000  14.0950500  12.3911200  49.5868850   3.7249510  11.2848070
  48.6393760   3.7588490  11.4163500  49.9118840   4.5388460  11.6697430
  45.6703450  15.7413980  11.8711520  45.6830610  15.3376270  11.0033780
  45.1178670  16.5161270  11.7672950  46.9648870  12.4630200   6.9601690
  46.8545200  11.5204530   7.0851110  46.9617120  12.8245840   7.8464450
  45.0688890  10.6443820  13.1994130  45.4857680  10.4303930  12.3647590
  45.7928710  10.9016610  13.7702750  42.5069150   8.0895520   6.3164180
  41.5798430   8.0232900   6.5452650  42.6593970   9.0275650   6.2019420
  42.4938230   4.3612520   3.3131340  41.5541900   4.5226480   3.3983800
  42.8121490   5.0798200   2.7667330  49.0150990   9.0431040  13.2910370
  48.1869620   9.1124130  12.8160500  49.6101470   9.6285350  12.8226200
  46.5366440   9.6515820   6.8199430  45.9178860   9.3135370   6.1725730
  46.5190890   9.0075580   7.5278620  45.9793000   5.8300360  14.2365240
  45.5664180   6.6554070  14.4905230  45.2468950   5.2445400  14.0441600
  38.1125790   8.6160260   9.0983910  37.7082790   7.9037510   8.6029810
  38.1988910   8.2713500   9.9871950  38.5807490  12.3027820  11.2623120
  38.2835780  11.6973290  10.5830900  39.5307310  12.3405130  11.1512480
  36.8254410   5.3903470  12.8782950  37.3769000   5.4998810  12.1036200
  37.3397920   5.7641070  13.5938180  46.6693100  15.8759690  14.9246220
  46.1923660  16.6831880  14.7318830  45.9854890  15.2238020  15.0772430
  37.6725920  12.0409510  17.9130920  36.7754450  12.2649480  18.1604320
  37.6978790  12.1644450  16.9642320  44.7131140   8.8902630   3.8272180
  45.1524420   8.0525060   3.6810000  45.4259560   9.5232030   3.9136320
  36.4997140   8.9122830  16.4888290  36.3604910   9.7845630  16.8575690
  35.6178500   8.5695640  16.3436230  42.8226520  13.8298700   7.7953420
  43.2622430  14.5723030   7.3808810  42.7613410  14.0725270   8.7192380
  38.2977490  14.8544530  18.6973440  38.2692920  15.2587480  17.8301870
  38.1342460  13.9254890  18.5345040  34.8130420   7.5105240   6.5990560
  34.6928020   8.2367330   5.9871830  34.5031310   6.7408150   6.1218470
  50.2492310  15.6371630  19.9937610  50.7252030  16.1154520  20.6726690
  50.8699470  15.5689120  19.2683110  32.4515790  10.6820380  12.4059200
  32.5296210  10.8169150  11.4614920  33.0657470   9.9736270  12.5987320
  33.6963420  12.3820570   8.8165380  33.2891500  12.5235160   7.9618980
  34.5876430  12.0980730   8.6136590  49.6525560  12.8284480  17.1537620
  49.7788620  12.5896360  16.2354800  49.6946940  11.9969020  17.6259700
  43.5142300  16.5312480  15.7232430  44.0286970  16.4420490  16.5254860
  42.6711380  16.8772180  16.0160340  45.4896700  16.8167820   5.1516430
  45.3297840  16.5270760   6.0498260  45.3243410  16.0407950   4.6161660
  37.9685080  16.5966350   6.9288050  37.7927560  15.6801890   6.7155850
  37.1140820  16.9553640   7.1685850  45.1922830  14.3255380   3.7114430
  44.4987990  14.3232670   3.0516710  45.9345690  13.9014700   3.2808600
  44.7572760  15.9518090   7.7862920  45.2129710  15.1707470   8.1001540
  45.0965280  16.6624910   8.3304100  49.5049570   4.8816940  18.1187360
  48.8893840   5.3896610  17.5902820  49.1845990   3.9815270  18.0613300
  32.5075310  11.7234550  14.9453660  32.6706350  11.2539910  14.1273030
  32.9727760  11.2158110  15.6102500  41.5663890   3.7208830  15.5849550
  41.1043260   3.9291850  16.3969490  41.1642000   2.9068180  15.2820220
  46.5668400   4.9417780  16.7146210  45.7161990   4.6423530  17.0355280
  46.4070190   5.1859790  15.8030030  43.6618110   6.4419530  18.8145000
  43.9871520   5.6083280  18.4747230  44.4498440   6.9648050  18.9623330
  37.0708300   5.9773880   7.7095480  36.8449220   5.7611050   8.6142100
  36.2900830   6.4102340   7.3641450  44.3006060   5.9837250   6.3086130
  43.7014950   6.7073050   6.1249750  44.8485670   5.9214030   5.5262580
  39.5107510   6.8759460  18.3755750  39.4151110   5.9354190  18.2256150
  40.3539490   7.0974530  17.9803820  42.9070930   4.6200790   8.3389410
  43.3000500   4.9372990   7.5258100  43.2687780   3.7412670   8.4533930
  34.6418050   3.2873130  16.5289530  34.2481440   4.1348340  16.7362310
  33.9536450   2.6499500  16.7198170  41.2163100   3.3708100  19.5986270
  40.5261420   3.1780300  20.2332360  41.9595400   3.6542740  20.1310570
  43.4926070   7.2106540  12.4340190  42.7607190   7.7193350  12.7830290
  43.0950410   6.3936520  12.1328970  39.9303460   3.8860740  10.8392680
  39.9339520   3.4450690   9.9897220  40.8254580   4.2078070  10.9464500
  35.7805840   3.7687230   9.7986890  35.4405890   4.2462460  10.5553940
  35.0183160   3.3152350   9.4387990  39.9923610   4.8872820   3.8299440
  40.1136430   4.8459300   4.7785260  39.6072120   5.7496970   3.6746170
  43.9551980   2.6640220  11.8463130  43.9724720   3.1148870  12.6904980
  43.7067560   1.7645860  12.0596570  39.0045110   7.1973960   3.2282740
  38.4362010   6.7492210   2.6018650  39.7134110   7.5566740   2.6947890
  34.0814290  11.0985980  17.1049470  33.6969080  10.4579650  17.7032430
  34.3926480  11.8022100  17.6744200  40.2311430   7.9462520  12.5858090
  40.5981560   7.4721090  13.3319430  40.0416490   8.8204090  12.9266430
  33.0951920   2.6906210   8.7151560  32.8098840   2.3261880   9.5530180
  33.0330780   1.9586670   8.1014700  38.0210800   6.9871160  14.9042300
  37.7167870   7.8663140  15.1292660  38.9757260   7.0470950  14.9399740
  36.5492590  11.1932150   5.5009150  35.7754850  10.6529770   5.3407870
  37.2787220  10.6738760   5.1626910  47.3080570  10.1897510  11.2935540
  48.0279690  10.6852800  10.9031650  47.1062390   9.5115400  10.6489410
  42.6899370  10.2606570  17.1804540  42.6236680   9.3402240  16.9262130
  42.0604510  10.3582010  17.8949180  45.4838900   5.9555120   3.7327090
  46.3718520   6.2672350   3.5578430  45.4543990   5.0827370   3.3407670
  36.5929990  10.8612530   9.1387960  37.1108660  10.0580790   9.0844850
  36.1414010  10.7991670   9.9804790  41.4799490  12.1278810   4.4115260
  41.8215190  12.8721040   3.9158580  40.6512200  12.4409930   4.7740090
  34.0774530   7.8273900  16.0513660  33.7189470   8.4927750  16.6387000
  33.7829090   6.9957450  16.4226280  37.2787650   8.2858140  18.9353210
  36.9787790   8.4315320  18.0381030  38.0498890   7.7263430  18.8426600
  42.6216100  13.0827140  16.9308340  42.6360640  12.1508100  16.7127250
  41.9141200  13.1686900  17.5698110  47.7553170   7.2666960   3.2006950
  47.6716890   7.6981180   2.3503390  48.4747360   7.7265310   3.6333770
  48.8327310   9.7234480  16.2776920  48.1075500  10.3163260  16.0806310
  49.3602770   9.7158020  15.4790290  48.7840420  14.1209220   5.9289080
  48.1416580  13.4664840   6.2032800  48.3971080  14.5264310   5.1529750
  44.3626900  11.4494650   9.7760770  44.7150720  10.8522780   9.1162140
  43.4789230  11.1238880   9.9469020  40.4490180  12.2092340   7.1831180
  41.1361310  12.7561550   7.5638770  39.6622600  12.7533070   7.2180790
  32.5882580   7.8265160   2.6748260  33.4577430   8.1089960   2.9584180
  32.0972900   8.6401030   2.5597070  39.7517390   9.2138370   6.7956540
  40.2080170  10.0243620   7.0216730  39.4005600   8.8961510   7.6275030
  42.0550000  14.7244710  14.0248840  42.6992220  14.9304090  14.7022260
  42.4179440  13.9633110  13.5719690  43.3282080  12.7277060  12.7426290
  43.9704310  12.0270220  12.8558460  43.8531430  13.5075500  12.5623180
  47.1737800  13.0125680   2.4665430  46.9475380  12.2956120   3.0590070
  46.7834000  12.7638120   1.6287180  45.1019700  13.5271960  15.9462350
  45.4375940  14.1138650  16.6240270  44.1820040  13.3964670  16.1760140
  32.9553830  17.0392540   3.2409890  33.3151470  17.6381880   2.5867160
  32.8146170  17.5852430   4.0144920  46.7554050  10.9297620   4.1279590
  46.4675750  11.3910310   4.9157470  47.5506220  10.4695390   4.3963810
  32.9395690  15.3047400  17.7152290  33.0486810  14.3642140  17.5747680
  32.2876250  15.5702150  17.0666020  40.9308280  13.5763290  19.1150410
  40.6105150  12.8572530  19.6596100  40.2566640  14.2518360  19.1886470
  38.9722450  14.4223740   4.0583560  38.9632550  15.1553430   3.4428070
  38.0520810  14.1755320   4.1510520  34.5729090   9.6438630   4.8030320
  33.9657040  10.3837530   4.8125620  35.0478440   9.7337990   3.9768520
  44.1461880   3.8089450  14.4787210  44.5142700   2.9884660  14.8066780
  43.2860080   3.8691340  14.8942860  47.5123910   2.7646390   5.2874770
  46.8837070   2.8692060   4.5733000  47.0175830   2.9843170   6.0768650
  41.9582050  14.4851980   2.7208750  42.0594030  14.2815970   1.7910730
  41.0583790  14.2310260   2.9256530  39.4807940   5.0432340   6.7032650
  38.7724090   5.5118680   7.1446260  39.7652420   4.3854350   7.3377840
  41.1063870   6.4629040  14.7025180  41.6049120   6.9374860  15.3677030
  41.2486820   5.5392560  14.9095210  43.5123370   1.7683000   8.1428440
  43.3891150   1.7869130   7.1937950  44.4607930   1.8161940   8.2626840
  40.6000160  17.0038300   7.4156420  40.8541660  16.9659690   6.4935790
  39.6512640  16.8771630   7.4084670  37.6842960   3.3517420   4.0783360
  38.5333490   3.7887570   4.0123550  37.3174230   3.6637680   4.9055420
  48.3130730   2.6797000  15.5453570  47.8104330   3.4202400  15.8847380
  49.1287390   3.0681000  15.2290360  46.6052740   7.9230180   8.9914930
  45.6642880   7.9380410   9.1662620  46.9196810   7.1366140   9.4375230
  36.5834380   9.6049780   2.5518890  37.3497650   9.4931140   3.1144320
  36.6609070   8.9087750   1.8995660  35.2781140   7.0374850   3.2351780
  35.3584730   6.0902360   3.3469180  36.1700890   7.3681730   3.3412440
  48.6078320  15.0939030  10.6669190  48.7325740  15.9170200  11.1393000
  49.4743880  14.8829760  10.3193340  36.0795850  17.1870240  10.3386320
  36.8158330  16.6385700  10.6094890  36.4636770  18.0526250  10.1992310
  32.9641330  13.2543810   6.2127830  32.0381110  13.4964950   6.2033240
  33.4297760  14.0818070   6.0912580  35.0854130  16.3716310  19.5271900
  35.8866860  16.6928360  19.9407300  34.5705950  16.0111890  20.2491810
  39.1898160  16.3600550   2.1611890  39.9826770  16.6489380   1.7093680
  38.6702510  15.9292720   1.4824370  43.9218760  12.4796180  19.4747310
  43.3156920  12.5027780  18.7343060  43.6172870  11.7479220  20.0114560
  45.3519130  16.2076470  18.0856720  46.3040880  16.1234490  18.0356960
  45.2047350  16.8718180  18.7590510  48.2428330  15.5870680   3.5848630
  47.9569840  15.1735820   2.7702810  48.0447880  16.5158390   3.4649150
  32.8051940   8.8589770  18.4707950  33.3090960   8.2797050  19.0424180
  32.0659360   9.1430000  19.0084320  39.8589880  10.2660760  18.0043470
  39.0935550  10.8345760  17.9198140  40.0405840   9.9736970  17.1111700
  42.9478290  10.6423990   2.6296230  42.3988390  11.0893290   3.2738970
  43.5697550  10.1373240   3.1533900  47.0013230  11.9966090  18.5618490
  47.7422700  12.3341850  18.0585950  46.2385910  12.1658150  18.0088260
  34.8375020   7.0019360  19.3658020  34.8780360   6.7033230  20.2743250
  35.6920520   7.4026970  19.2065540  38.6153410   9.6014910   4.5261530
  39.0369830   9.4354780   5.3692920  38.7404250   8.7915140   4.0316670
  36.7780830   5.5811460  17.3332510  36.2477290   5.0902410  16.7055850
  37.4468900   6.0095660  16.7990440  45.6758890  10.0480920  17.0973700
  46.0899910  10.2026000  17.9464120  44.7409890  10.1736140  17.2599480
  46.1481060   7.3877080  19.1012850  46.7301830   6.6329400  19.0133330
  46.3242830   7.9184520  18.3244330  37.2653130   2.5473830  17.4129800
  37.1710000   1.9294580  16.6880670  36.6850520   3.2740120  17.1859710
  40.4374120  10.0001400  15.0669630  40.8562230  10.8434130  14.8945870
  39.5182750  10.1373440  14.8376410  42.7738020   7.7317580  16.4507470
  42.8934230   7.1358720  17.1902310  43.6332020   7.7687270  16.0308770
  45.1125920   8.2854770  15.0269980  44.5861140   8.8097390  14.4235120
  45.4557260   8.9182160  15.6579710  38.2881540  16.3054410  16.1827360
  37.7502630  17.0300470  15.8636060  38.5415500  15.8284750  15.3924700
  39.5406790   4.2738930  17.7083290  40.1306480   3.9654780  18.3961110
  38.7227030   3.8018680  17.8643190  44.3600220   3.8904740  17.9416310
  43.6715740   3.2286280  17.8766300  45.0806240   3.4443010  18.3864770
  41.1443750  17.5405620  16.4414010  41.0702450  18.4440760  16.7486380
  40.2422590  17.2217520  16.4136080  41.6929080  16.7064130   4.0640370
  42.5879870  17.0449100   4.0859130  41.7246710  15.9843540   3.4364650
  35.3325240  12.0791180   2.2927370  35.7700110  12.6220850   2.9484950
  35.8172970  11.2538130   2.3023710  32.5471040  14.8680210   9.7447630
  32.8774050  14.0001270   9.5126270  32.9762040  15.0738730  10.5752590
  37.1432960  13.1989220   7.4049600  36.8428500  13.0754190   8.3053510
  37.0370450  12.3397810   6.9965330  33.0361250  15.7350800  12.4829260
  32.5992240  15.9151600  13.3153410  33.6038930  16.4925420  12.3410980
  48.6723430  15.2367800  16.7706570  48.0725420  15.2960360  16.0270490
  48.8017330  14.2972780  16.9003420  49.9124880  12.9785620   2.1076280
  49.0817840  13.0462270   2.5783510  50.0896710  13.8689740   1.8043140
  49.3681340   9.7233100   4.6110480  50.1300250  10.2929750   4.7170170
  49.3835710   9.1560300   5.3818790  32.8685680   8.2471030   8.8418140
  32.2134520   7.9782670   8.1977840  33.7063630   8.1375510   8.3920120
  50.3741310  10.5783200   9.4552410  50.7450140   9.7950520   9.0488380
  51.0143240  11.2672300   9.2769710  47.3575070  11.9619780  14.8682730
  46.5434910  12.3916940  15.1308520  47.7649270  12.5738190  14.2551780
  49.4200510  10.0167470   1.7683000  49.6949350  10.9246350   1.6402220
  49.2311250   9.9530000   2.7044990  45.8176120   3.0412320   3.0636630
  46.2361000   2.8543300   2.2233290  45.5112180   2.1891370   3.3739560
  49.3165850   7.9536460   6.7612430  48.9409450   7.1864390   6.3293720
  48.5868970   8.3359160   7.2487360  33.9061610   8.6323600  13.3821480
  34.2734650   8.5451000  14.2617500  33.3372430   7.8690150  13.2828340
  48.7065470   7.1007980  16.3951950  48.4751560   6.8720730  15.4949900
  48.9670020   8.0207530  16.3496840  33.4577610   5.5432690  17.2879900
  32.5633660   5.5099450  17.6273610  33.9975160   5.7419480  18.0531150
  47.1453540   2.3264410  19.1731650  48.0223720   2.3347810  19.5565650
  47.1574380   1.5895250  18.5624000  32.0823760   5.4569960   4.7843470
  31.1787840   5.7200160   4.6095130  32.5664380   5.7281130   4.0043430
  48.5916810   6.1793950  10.0619670  49.1154290   5.6856600   9.4309840
  49.1776230   6.3144310  10.8067240  48.7706530   6.2633820  13.5839220
  47.8209240   6.2297360  13.6984210  48.9519540   7.1733930  13.3488990
  34.6250970   4.5135500   2.6937850  35.3342670   4.0918720   2.2085130
  33.9090910   4.5810730   2.0621200  48.0816780   5.4367300   6.0012080
  48.5775900   5.2038170   6.7860960  47.8832850   4.5979140   5.5849720
  49.5103940   4.0728250   8.5349760  49.4003220   3.9184290   9.4732030
  50.2711530   3.5449190   8.2925170  50.3994210   1.9036170   1.7755900
  51.3243520   1.7717350   1.5674190  50.3770000   1.9828990   2.7292350
  50.4732700   2.6746830   4.4012610  49.6784200   2.6091950   4.9305520
  50.6775980   3.6097470   4.3897960  47.4151120  16.7138380   8.3951000
  48.0110190  16.3922950   7.7185420  47.6729270  16.2410200   9.1864270
  35.3213690  13.1456290  18.5441630  35.2783320  12.7749200  19.4256090
  35.4524700  14.0833860  18.6843450  39.0219720  14.7015880  14.1451350
  38.7811080  14.9690440  13.2581870  39.9622360  14.8721610  14.2002210
  50.2823880  16.7210260  14.9461990  49.7882160  17.1179130  14.2289120
  49.6737170  16.0959470  15.3399270  35.1601720  16.0918540  15.6639410
  34.5662040  15.9603240  16.4029450  35.1525560  15.2556680  15.1981510
  47.9663330  17.3633680  12.2248730  47.5066300  18.1149490  11.8506750
  47.3375790  16.6440150  12.1663530  34.7913950  13.4576920  14.6147450
  34.0648010  12.8382210  14.5473400  34.8523100  13.8517530  13.7445530
  38.3959050  15.6721920  11.3996860  38.9124070  15.0609280  10.8745120
  39.0456430  16.1750700  11.8907870  41.1354550  16.5630410  12.2265840
  41.4232360  16.3084710  11.3498850  41.6477770  16.0107770  12.8171410
  33.0743950  16.7751310   7.8244210  32.9065990  16.1421990   8.5226100
  32.2078460  16.9810710   7.4738400  40.2385780   2.7207360   8.3178380
  39.4260290   2.3464250   7.9774260  40.7427420   1.9652440   8.6199570
  34.6806650  15.4684540   5.2694350  34.1554270  15.8492570   4.5656310
  34.6051230  16.0935310   5.9904060  41.2026910  17.4846510  19.5934040
  42.1294220  17.2490780  19.6370000  41.1877340  18.3118510  19.1120070
  49.4371970  17.0272080   6.5908290  49.6124160  16.3409820   5.9469210
  48.7393540  17.5519130   6.1984960  37.2799620  17.4166920   4.1443600
  38.0118440  17.1326200   3.5967490  37.5393290  17.1780200   5.0342980
  36.4414410  13.5331650   4.1489930  35.8123290  14.0016750   4.6975760
  36.5562240  12.6880870   4.5836120  47.7704470  16.7116370  19.4175080
  48.5629790  16.2165600  19.2101040  48.0637620  17.3906510  20.0250690
  25.1220640  82.6811270  65.3965090  25.0414690  81.7665880  65.1256800
  24.7085060  83.1778340  64.6904800  23.2538680  84.4590290  67.2774360
  22.4780780  83.9790730  67.5672930  23.9051610  83.7795940  67.1030520
  17.2704510  84.7710100  68.1550120  16.4389390  84.5158810  68.5546630
  17.8785490  84.8420870  68.8908040  27.2746110  88.8650480  66.0573490
  26.8127640  88.0937720  66.3860660  28.0871660  88.8916550  66.5625940
  17.2505770  88.8050190  68.3508140  17.5533810  87.9147930  68.1718360
  17.9949360  89.3620410  68.1230390  15.6796460  79.7311990  61.9392510
  14.7913160  80.0727960  61.8372390  15.9637650  79.5312310  61.0473340
  13.6429470  82.3317640  67.8232210  14.2145580  81.5639840  67.8235850
  13.6431010  82.6306400  66.9138820  22.6947670  87.1347480  67.2844520
  22.6255950  86.1937420  67.1233650  23.4567530  87.2248890  67.8567090
  14.8854340  77.7402000  69.6101140  14.7057180  76.8427750  69.8903900
  14.4834420  78.2873870  70.2848090  23.7252840  79.9417860  67.5113450
  24.1017660  79.0689740  67.3987120  23.6272350  80.2776560  66.6203890
  17.8557850  78.3143490  62.9730890  17.9624600  79.2147220  63.2799650
  16.9450210  78.2661460  62.6825540  27.5076960  77.4368300  64.4441790
  28.3286580  76.9464870  64.4867270  27.5411040  78.0265960  65.1973630
  15.5041010  80.2362500  68.2183480  16.1851120  80.5000870  68.8370880
  15.1889060  79.3963370  68.5521490  19.6965580  81.2829860  67.3056070
  20.2043800  81.7810830  67.9461090  20.2278820  80.5065060  67.1295430
  31.7976510  79.4535050  71.0085420  31.0928680  79.8416760  70.4900530
  32.0634430  80.1485340  71.6106350  17.9801680  75.9228420  71.5719490
  17.9820120  76.4400810  70.7665390  17.1505990  75.4458600  71.5489420
  24.3672770  86.0347730  63.0709390  23.7490040  86.4997180  62.5072110
  24.8796020  86.7275210  63.4878900  19.2304530  85.5623600  69.7492990
  18.8973910  86.1892520  70.3914060  19.4071210  86.0885480  68.9694660
  27.7438440  79.3768680  67.2169330  27.0394010  79.6653570  67.7972440
  28.1050600  80.1868790  66.8568890  17.6617010  77.6338380  69.5789940
  18.0033820  78.4780430  69.2843810  16.7232820  77.7822120  69.6955280
  18.4423630  87.5304400  71.5642170  19.0597630  88.2055480  71.2826620
  17.5816750  87.9392380  71.4729670  13.7355970  86.7204260  60.4449020
  13.3583950  87.2091360  59.7133920  13.9929040  87.3929540  61.0755550
  29.3601220  88.9943810  69.4796810  28.6764740  89.6642920  69.4713480
  29.8995510  89.1924460  68.7141670  30.8125360  78.8223470  67.6078540
  29.8650270  78.8562450  67.7393970  31.1375350  79.6362420  67.9927900
  21.3444900  75.1220650  65.9034530  21.6519880  74.5667540  65.1870030
  20.4145600  75.2565110  65.7207520  28.1905380  87.5604160  63.2832160
  28.0801710  86.6178490  63.4081580  28.1873630  87.9219800  64.1694920
  26.2945400  85.7417780  69.5224600  26.7114190  85.5277890  68.6878060
  27.0185220  85.9990570  70.0933220  23.7325660  83.1869480  62.6394650
  22.8054940  83.1206860  62.8683120  23.8850480  84.1249610  62.5249890
  23.7194740  79.4586480  59.6361810  22.7798410  79.6200440  59.7214270
  24.0378000  80.1772160  59.0897800  30.2407500  84.1405000  69.6140840
  29.4126130  84.2098090  69.1390970  30.8357980  84.7259310  69.1456670
  27.7622950  84.7489780  63.1429900  27.1435370  84.4109330  62.4956200
  27.7447400  84.1049540  63.8509090  27.2049510  80.9274320  70.5595710
  26.7920690  81.7528030  70.8135700  26.4725460  80.3419360  70.3672070
  19.3382300  83.7134220  65.4214380  18.9339300  83.0011470  64.9260280
  19.4245420  83.3687460  66.3102420  19.8064000  87.4001780  67.5853590
  19.5092290  86.7947250  66.9061370  20.7563820  87.4379090  67.4742950
  18.0510920  80.4877430  69.2013420  18.6025510  80.5972770  68.4266670
  18.5654430  80.8615030  69.9168650  18.8982430  87.1383470  74.2361390
  18.0010960  87.3623440  74.4834790  18.9235300  87.2618410  73.2872790
  25.9387650  83.9876590  60.1502650  26.3780930  83.1499020  60.0040470
  26.6516070  84.6205990  60.2366790  17.7253650  84.0096790  72.8118760
  17.5861420  84.8819590  73.1806160  16.8435010  83.6669600  72.6666700
  24.0483030  88.9272660  64.1183890  24.4878940  89.6696990  63.7039280
  23.9869920  89.1699230  65.0422850  19.5234000  89.9518490  75.0203910
  19.4949430  90.3561440  74.1532340  19.3598970  89.0228850  74.8575510
  29.5204790  75.2419400  58.4643690  29.2077450  75.3346230  59.3642760
  30.2817260  75.8200430  58.4141120  16.0386930  82.6079200  62.9221030
  15.9184530  83.3341290  62.3102300  15.7287820  81.8382110  62.4448940
  13.6772300  85.7794340  68.7289670  13.7552720  85.9143110  67.7845390
  14.2913980  85.0710230  68.9217790  14.9219930  87.4794530  65.1395850
  14.5148010  87.6209120  64.2849450  15.8132940  87.1954690  64.9367060
  30.8782070  87.9258440  73.4768090  31.0045130  87.6870320  72.5585270
  30.9203450  87.0942980  73.9490170  26.4179340  89.4229340  60.0344900
  25.7244500  89.4206630  59.3747180  27.1602200  88.9988660  59.6039070
  30.7306080  79.9790900  74.4417830  30.1150350  80.4870570  73.9133290
  30.4102500  79.0789230  74.3843770  13.7331820  86.8208510  71.2684130
  13.8962860  86.3513870  70.4503500  14.1984270  86.3132070  71.9332970
  18.5050590  75.9514270  66.3044700  18.0618740  76.7323810  65.9729220
  19.0635580  76.2744160  67.0115640  22.7920400  78.8182790  71.9080020
  22.3299770  79.0265810  72.7199960  22.3898510  78.0042140  71.6050690
  27.7924910  80.0391740  73.0376680  26.9418500  79.7397490  73.3585750
  27.6326700  80.2833750  72.1260500  24.8874620  81.5393490  75.1375470
  25.2128030  80.7057240  74.7977700  25.6754950  82.0622010  75.2853800
  21.6209410  75.5724970  61.1850530  20.9963590  75.5684840  61.9103840
  21.5339530  74.7055930  60.7886500  20.5426490  76.4961600  68.1634300
  20.8398820  77.4024430  68.0826320  21.0912050  76.0080380  67.5493870
  18.2964810  81.0747840  64.0325950  18.0705730  80.8585010  64.9372570
  17.5157340  81.5076300  63.6871920  25.5262570  81.0811210  62.6316600
  24.9271460  81.8047010  62.4480220  26.0742180  81.0187990  61.8493050
  20.7364020  81.9733420  74.6986220  20.6407620  81.0328150  74.5486620
  21.5796000  82.1948490  74.3034290  24.1327440  79.7174750  64.6619880
  24.5257010  80.0346950  63.8488570  24.4944290  78.8386630  64.7764400
  15.8674560  78.3847090  72.8520000  15.4737950  79.2322300  73.0592780
  15.1792960  77.7473460  73.0428640  13.1691610  76.3075550  66.8850080
  12.8804660  76.8778410  67.5975060  13.9137370  75.8280000  67.2481310
  13.3561840  80.2495670  58.0952800  13.2736510  81.1926430  58.2367790
  13.0044900  80.1070580  57.2165150  24.7182580  82.3080500  68.7570660
  23.9863700  82.8167310  69.1060760  24.3206920  81.4910480  68.4559440
  21.1559970  78.9834700  67.1623150  21.1596030  78.5424650  66.3127690
  22.0511090  79.3052030  67.2694970  17.0062350  78.8661190  66.1217360
  16.6662400  79.3436420  66.8784410  16.2439670  78.4126310  65.7618460
  21.2180120  79.9846780  60.1529910  21.3392940  79.9433260  61.1015730
  20.8328630  80.8470930  59.9976640  25.1808490  77.7614180  68.1693600
  25.1981230  78.2122830  69.0135450  24.9324070  76.8619820  68.3827040
  20.2301620  82.2947920  59.5513210  19.6618520  81.8466170  58.9249120
  20.9390620  82.6540700  59.0178360  28.6079240  75.1746360  74.0079980
  28.9325010  74.4436020  74.5337960  28.6435750  74.8560000  73.1060970
  15.3070800  86.1959940  73.4279940  14.9225590  85.5553610  74.0262900
  15.6182990  86.8996060  73.9974670  21.4567940  83.0436480  68.9088560
  21.8238070  82.5695050  69.6549900  21.2673000  83.9178050  69.2496900
  14.3208430  77.7880170  65.0382030  14.0355350  77.4235840  65.8760650
  14.2587290  77.0560630  64.4245170  19.2467310  82.0845120  71.2272770
  18.9424380  82.9637100  71.4523130  20.2013770  82.1444910  71.2630210
  17.7749100  86.2906110  61.8239620  17.0011360  85.7503730  61.6638340
  18.5043730  85.7712720  61.4857380  28.5337080  85.2871470  67.6166010
  29.2536200  85.7826760  67.2262120  28.3318900  84.6089360  66.9719880
  23.9947020  76.6809430  61.7595400  23.1811630  76.1822600  61.6840710
  23.8008970  77.5207680  61.3431750  23.9155880  85.3580530  73.5035010
  23.8493190  84.4376200  73.2492600  23.2861020  85.4555970  74.2179650
  26.7095410  81.0529080  60.0557560  27.5975030  81.3646310  59.8808900
  26.6800500  80.1801330  59.6638140  17.8186500  85.9586490  65.4618430
  18.3365170  85.1554750  65.4075320  17.3670520  85.8965630  66.3035260
  22.7056000  87.2252770  60.7345730  23.0471700  87.9695000  60.2389050
  21.8768710  87.5383890  61.0970560  15.3031040  82.9247860  72.3744130
  14.9445980  83.5901710  72.9617470  15.0085600  82.0931410  72.7456750
  18.5044160  83.3832100  75.2583680  18.2044300  83.5289280  74.3611500
  19.2755400  82.8237390  75.1657070  23.8472610  88.1801100  73.2538810
  23.8617150  87.2482060  73.0357720  23.1397710  88.2660860  73.8928580
  28.9809680  82.3640920  59.5237420  28.8973400  82.7955140  58.6733860
  29.7003870  82.8239270  59.9564240  30.0583820  84.8208440  72.6007390
  29.3332010  85.4137220  72.4036780  30.5859280  84.8131980  71.8020760
  30.0096930  89.2183180  62.2519550  29.3673090  88.5638800  62.5263270
  29.6227590  89.6238270  61.4760220  25.5883410  86.5468610  66.0991240
  25.9407230  85.9496740  65.4392610  24.7045740  86.2212840  66.2699490
  21.6746690  87.3066300  63.5061650  22.3617820  87.8535510  63.8869240
  20.8879110  87.8507030  63.5411260  13.8139090  82.9239120  58.9978730
  14.6833940  83.2063920  59.2814650  13.3229410  83.7374990  58.8827540
  20.9773900  84.3112330  63.1187010  21.4336680  85.1217580  63.3447200
  20.6262110  83.9935470  63.9505500  23.2806510  89.8218670  70.3479310
  23.9248730  90.0278050  71.0252730  23.6435950  89.0607070  69.8950160
  16.8785680  74.6549980  63.5909530  16.7500310  74.6467880  64.5394450
  16.0547700  74.9933070  63.2400540  24.5538590  87.8251020  69.0656760
  25.1960820  87.1244180  69.1788930  25.0787940  88.6049460  68.8853650
  28.3994310  88.1099640  58.7895900  28.1731890  87.3930080  59.3820540
  28.0090510  87.8612080  57.9517650  26.3276210  88.6245920  72.2692820
  26.6632450  89.2112610  72.9470740  25.4076550  88.4938630  72.4990610
  13.8779610  76.4141100  73.0516230  13.1638130  76.6138020  73.6568840
  14.2974650  75.6380670  73.4231030  27.9810560  86.0271580  60.4510060
  27.6932260  86.4884270  61.2387940  28.7762730  85.5669350  60.7194280
  22.1564790  88.6737250  75.4380880  21.8361660  87.9546490  75.9826570
  21.4823150  89.3492320  75.5116940  20.1978960  89.5197700  60.3814030
  20.1889060  90.2527390  59.7658540  19.2777320  89.2729280  60.4740990
  15.7985600  84.7412590  61.1260790  15.1913550  85.4811490  61.1356090
  16.2734950  84.8311950  60.2998990  25.3718390  78.9063410  70.8017680
  25.7399210  78.0858620  71.1297250  24.5116590  78.9665300  71.2173330
  28.7380420  77.8620350  61.6105240  28.1093580  77.9666020  60.8963470
  28.2432340  78.0817130  62.3999120  23.1838560  89.5825940  59.0439220
  23.2850540  89.3789930  58.1141200  22.2840300  89.3284220  59.2487000
  20.7064450  80.1406300  63.0263120  19.9980600  80.6092640  63.4676730
  20.9908930  79.4828310  63.6608310  22.3320380  81.5603000  71.0255650
  22.8305630  82.0348820  71.6907500  22.4743330  80.6366520  71.2325680
  24.7379880  76.8656960  64.4658910  24.6147660  76.8843090  63.5168420
  25.6864440  76.9135900  64.5857310  18.9099470  78.4491380  60.4013830
  19.7590000  78.8861530  60.3354020  18.5430740  78.7611640  61.2285890
  29.5387240  77.7770960  71.8684040  29.0360840  78.5176360  72.2077850
  30.3543900  78.1654960  71.5520830  27.8309250  83.0204140  65.3145400
  26.8899390  83.0354370  65.4893090  28.1453320  82.2340100  65.7605700
  17.8090890  84.7023740  58.8749360  18.5754160  84.5905100  59.4374790
  17.8865580  84.0061710  58.2226130  16.5037650  82.1348810  59.5582250
  16.5841240  81.1876320  59.6699650  17.3957400  82.4655690  59.6642910
  14.1897840  88.3517770  62.5358300  13.2637620  88.5938910  62.5263710
  14.6554270  89.1792030  62.4143050  14.0308450  83.9563730  74.7938420
  14.5347470  83.3771010  75.3654650  13.2915870  84.2403960  75.3314790
  20.9332070  86.6777920  58.3484710  20.8282710  86.0630270  59.0746090
  20.7656290  86.1543810  57.5647720  21.0846390  85.3634720  74.3273940
  20.3192060  85.9319720  74.2428610  21.2662350  85.0710930  73.4342170
  24.1734800  85.7397950  58.9526700  23.6244900  86.1867250  59.5969440
  24.7954060  85.2347200  59.4764370  28.2269740  87.0940050  74.8848960
  28.9679210  87.4315810  74.3816420  27.4642420  87.2632110  74.3318730
  19.8409920  84.6988870  60.8492000  20.2626340  84.5328740  61.6923390
  19.9660760  83.8889100  60.3547140  18.0037340  80.6785420  73.6562980
  17.4733800  80.1876370  73.0286320  18.6725410  81.1069620  73.1220910
  22.3537560  83.7226480  58.0969100  22.8743220  83.0075500  57.7310250
  23.0005960  84.3612350  58.3969610  26.9015400  85.1454880  73.4204170
  27.3156420  85.2999960  74.2694590  25.9666400  85.2710100  73.5829950
  27.3737570  82.4851040  75.4243320  27.9558340  81.7303360  75.3363800
  27.5499340  83.0158480  74.6474800  18.4909640  77.6447790  73.7360270
  18.3966510  77.0268540  73.0111140  17.9107030  78.3714080  73.5090180
  21.2571080  76.2021030  70.7687660  20.8088380  76.2245290  69.9233210
  20.6236280  75.8040050  71.3657960  21.6630630  85.0975360  71.3900100
  22.0818740  85.9408090  71.2176340  20.7439260  85.2347400  71.1606880
  23.9994530  82.8291540  72.7737940  24.1190740  82.2332680  73.5132780
  24.8588530  82.8661230  72.3539240  26.3382430  83.3828730  71.3500450
  25.8117650  83.9071350  70.7465590  26.6813770  84.0156120  71.9810180
  18.7368820  80.7722100  57.7950160  18.5357880  79.9089460  58.1563500
  18.5660870  80.6855460  56.8571760  20.7663300  79.3712890  74.0313760
  21.3562990  79.0628740  74.7191580  19.9483540  78.8992640  74.1873660
  25.5856730  78.9878700  74.2646780  24.8972250  78.3260240  74.1996770
  26.3062750  78.5416970  74.7095240  26.2157130  75.5830330  60.3237040
  26.4959420  74.7398230  60.6796460  25.4422860  75.8153440  60.8375790
  17.5351620  77.8722720  57.7828040  17.8377520  77.8790150  56.8747190
  18.2746210  77.5220580  58.2795700  20.7536550  76.8157340  58.7684240
  20.4058550  76.1381330  58.1886690  20.9549320  76.3546850  59.5827630
  16.5581750  87.1765140  58.6157840  16.9956620  87.7194810  59.2715420
  17.0429480  86.3512090  58.6254180  13.7727550  89.9654170  66.0678100
  14.1030560  89.0975230  65.8356740  14.2018550  90.1712690  66.8983060
  18.3689470  88.2963180  63.7280070  18.0685010  88.1728150  64.6283980
  18.2626960  87.4371770  63.3195800  29.8979940  90.3341760  73.0937040
  29.2981930  90.3934320  72.3500960  30.0273840  89.3946740  73.2233890
  31.1381390  88.0759580  58.4306750  30.3074350  88.1436230  58.9013980
  31.3153220  88.9663700  58.1273610  30.5937850  84.8207060  60.9340950
  31.3556760  85.3903710  61.0400640  30.6092220  84.2534260  61.7049260
  14.0942190  83.3444990  65.1648610  13.4391030  83.0756630  64.5208310
  14.9320140  83.2349470  64.7150590  31.5997820  85.6757160  65.7782880
  31.9706650  84.8924480  65.3718850  32.2399750  86.3646260  65.6000180
  28.5831580  87.0593740  71.1913200  27.7691420  87.4890900  71.4538990
  28.9905780  87.6712150  70.5782250  30.6457020  85.1141430  58.0913470
  30.9205860  86.0220310  57.9632690  30.4567760  85.0503960  59.0275460
  27.0432630  78.1386280  59.3867100  27.4617510  77.9517260  58.5463760
  26.7368690  77.2865330  59.6970030  30.5422360  83.0510420  63.0842900
  30.1665960  82.2838350  62.6524190  29.8125480  83.4333120  63.5717830
  15.1318120  83.7297560  69.7051950  15.4991160  83.6424960  70.5847970
  14.5628940  82.9664110  69.6058810  29.9321980  82.1981940  72.7182420
  29.7008070  81.9694690  71.8180370  30.1926530  83.1181490  72.6727310
  14.6834120  80.6406650  73.6110370  13.7890170  80.6073410  73.9504080
  15.2231670  80.8393440  74.3761620  28.3710050  77.4238370  75.4962120
  29.2480230  77.4321770  75.8796120  28.3830890  76.6869210  74.8854470
  13.3080270  80.5543920  61.1073940  12.4044350  80.8174120  60.9325600
  13.7920890  80.8255090  60.3273900  29.8173320  81.2767910  66.3850140
  30.3410800  80.7830560  65.7540310  30.4032740  81.4118270  67.1297710
  29.9963040  81.3607780  69.9069690  29.0465750  81.3271320  70.0214680
  30.1776050  82.2707890  69.6719460  15.8507480  79.6109460  59.0168320
  16.5599180  79.1892680  58.5315600  15.1347420  79.6784690  58.3851670
  15.4981640  75.6648790  58.0570970  16.2209770  76.2057730  58.3752190
  15.7706160  75.3912210  57.1812510  29.3073290  80.5341260  62.3242550
  29.8032410  80.3012130  63.1091430  29.1089360  79.6953100  61.9080190
  15.1873830  74.9154980  67.9593590  15.8350020  74.3652360  67.5188750
  15.6075670  75.1698130  68.7809400  30.7360450  79.1702210  64.8580230
  30.6259730  79.0158250  65.7962500  31.4968040  78.6423150  64.6155640
  29.0826170  75.1096340  71.3163230  29.7198390  75.7230480  71.6822420
  29.2301060  75.1457000  70.3712460  31.6250720  77.0010130  58.0986370
  32.5500030  76.8691310  57.8904660  31.6026510  77.0802950  59.0522820
  31.6989210  77.7720790  60.7243080  30.9040710  77.7065910  61.2535990
  31.9032490  78.7071430  60.7128430  14.9405830  75.0710650  70.7018910
  14.5920650  75.5274470  71.4677090  14.6093530  74.1767780  70.7841340
  16.5470200  88.2430250  74.8672100  16.5039830  87.8723160  75.7486560
  16.6781210  89.1807820  75.0073920  20.2476230  89.7989840  70.4681820
  20.0067590  90.0664400  69.5812340  21.1878870  89.9695570  70.5232680
  22.4530650  76.2622530  74.2238330  22.3919540  76.8544360  74.9733740
  23.3931030  76.1548490  74.0788590  25.0905210  75.9192590  73.8630620
  25.7045620  76.2371880  73.2011700  25.6354770  75.4341180  74.4826480
  15.6126470  74.5986850  73.9769680  16.1609460  74.4174900  73.2135790
  15.6781780  73.8080960  74.5125990  25.8313250  74.4824730  70.1899910
  24.9573090  74.8159840  69.9872840  25.7224000  74.0097910  71.0151780
  26.7385230  76.6895600  71.5741630  26.4098590  75.8747360  71.1943360
  27.6867530  76.6465410  71.4507320  16.0170460  88.5550880  70.9377920
  15.2904520  87.9356170  70.8703870  16.0779610  88.9491490  70.0676000
  23.5788070  75.3994570  69.1292820  22.7959860  75.8740070  69.4089580
  23.2851000  74.4949400  69.0206000  28.1309140  76.1017670  67.1741910
  28.5717230  76.0462770  66.3263510  27.8616730  77.0175680  67.2452090
  29.9947710  75.7332910  65.1850730  29.9336110  74.7894130  65.0381750
  30.7739740  75.8413000  65.7304190  14.9228480  75.7042050  61.6506540
  15.6807840  75.8170930  61.0770570  14.4605650  76.5411250  61.6049970
  21.4642290  77.8181320  64.6408850  20.6516800  77.4438210  64.3004730
  21.9683930  77.0626400  64.9430040  25.9667270  74.4823770  65.8791920
  26.5696640  75.0543980  66.3540440  25.2260260  75.0463210  65.6565820
  29.1101870  74.8845330  61.1532200  29.3052500  75.7828780  61.4199630
  28.3231740  74.6532410  61.6465150  17.2953630  76.2306100  60.1908510
  17.8246390  75.4435900  60.0616460  17.9281950  76.9097290  60.4244040
  19.4891470  75.9681240  63.2453900  18.8594210  75.2668550  63.4124030
  18.9496610  76.7285370  63.0287060  19.6147030  75.2465220  75.6806390
  19.3331300  75.7498820  74.9167210  19.9966730  74.4486970  75.3148520
  17.6670920  88.6305610  60.4720400  17.0379800  89.0990710  61.0206230
  17.7818750  87.7854830  60.9066590  25.1220640  82.6811270  46.6221600
  25.0414690  81.7665880  46.3513310  24.7085060  83.1778340  45.9161310
  23.2538680  84.4590290  48.5030870  22.4780780  83.9790730  48.7929440
  23.9051610  83.7795940  48.3287030  17.2704510  84.7710100  49.3806630
  16.4389390  84.5158810  49.7803140  17.8785490  84.8420870  50.1164550
  27.2746110  88.8650480  47.2830000  26.8127640  88.0937720  47.6117170
  28.0871660  88.8916550  47.7882450  17.2505770  88.8050190  49.5764650
  17.5533810  87.9147930  49.3974870  17.9949360  89.3620410  49.3486900
  15.6796460  79.7311990  43.1649020  14.7913160  80.0727960  43.0628900
  15.9637650  79.5312310  42.2729850  13.6429470  82.3317640  49.0488720
  14.2145580  81.5639840  49.0492360  13.6431010  82.6306400  48.1395330
  22.6947670  87.1347480  48.5101030  22.6255950  86.1937420  48.3490160
  23.4567530  87.2248890  49.0823600  14.8854340  77.7402000  50.8357650
  14.7057180  76.8427750  51.1160410  14.4834420  78.2873870  51.5104600
  23.7252840  79.9417860  48.7369960  24.1017660  79.0689740  48.6243630
  23.6272350  80.2776560  47.8460400  17.8557850  78.3143490  44.1987400
  17.9624600  79.2147220  44.5056160  16.9450210  78.2661460  43.9082050
  27.5076960  77.4368300  45.6698300  28.3286580  76.9464870  45.7123780
  27.5411040  78.0265960  46.4230140  15.5041010  80.2362500  49.4439990
  16.1851120  80.5000870  50.0627390  15.1889060  79.3963370  49.7778000
  19.6965580  81.2829860  48.5312580  20.2043800  81.7810830  49.1717600
  20.2278820  80.5065060  48.3551940  31.7976510  79.4535050  52.2341930
  31.0928680  79.8416760  51.7157040  32.0634430  80.1485340  52.8362860
  17.9801680  75.9228420  52.7976000  17.9820120  76.4400810  51.9921900
  17.1505990  75.4458600  52.7745930  24.3672770  86.0347730  44.2965900
  23.7490040  86.4997180  43.7328620  24.8796020  86.7275210  44.7135410
  19.2304530  85.5623600  50.9749500  18.8973910  86.1892520  51.6170570
  19.4071210  86.0885480  50.1951170  27.7438440  79.3768680  48.4425840
  27.0394010  79.6653570  49.0228950  28.1050600  80.1868790  48.0825400
  17.6617010  77.6338380  50.8046450  18.0033820  78.4780430  50.5100320
  16.7232820  77.7822120  50.9211790  18.4423630  87.5304400  52.7898680
  19.0597630  88.2055480  52.5083130  17.5816750  87.9392380  52.6986180
  13.7355970  86.7204260  41.6705530  13.3583950  87.2091360  40.9390430
  13.9929040  87.3929540  42.3012060  29.3601220  88.9943810  50.7053320
  28.6764740  89.6642920  50.6969990  29.8995510  89.1924460  49.9398180
  30.8125360  78.8223470  48.8335050  29.8650270  78.8562450  48.9650480
  31.1375350  79.6362420  49.2184410  21.3444900  75.1220650  47.1291040
  21.6519880  74.5667540  46.4126540  20.4145600  75.2565110  46.9464030
  28.1905380  87.5604160  44.5088670  28.0801710  86.6178490  44.6338090
  28.1873630  87.9219800  45.3951430  26.2945400  85.7417780  50.7481110
  26.7114190  85.5277890  49.9134570  27.0185220  85.9990570  51.3189730
  23.7325660  83.1869480  43.8651160  22.8054940  83.1206860  44.0939630
  23.8850480  84.1249610  43.7506400  23.7194740  79.4586480  40.8618320
  22.7798410  79.6200440  40.9470780  24.0378000  80.1772160  40.3154310
  30.2407500  84.1405000  50.8397350  29.4126130  84.2098090  50.3647480
  30.8357980  84.7259310  50.3713180  27.7622950  84.7489780  44.3686410
  27.1435370  84.4109330  43.7212710  27.7447400  84.1049540  45.0765600
  27.2049510  80.9274320  51.7852220  26.7920690  81.7528030  52.0392210
  26.4725460  80.3419360  51.5928580  19.3382300  83.7134220  46.6470890
  18.9339300  83.0011470  46.1516790  19.4245420  83.3687460  47.5358930
  19.8064000  87.4001780  48.8110100  19.5092290  86.7947250  48.1317880
  20.7563820  87.4379090  48.6999460  18.0510920  80.4877430  50.4269930
  18.6025510  80.5972770  49.6523180  18.5654430  80.8615030  51.1425160
  18.8982430  87.1383470  55.4617900  18.0010960  87.3623440  55.7091300
  18.9235300  87.2618410  54.5129300  25.9387650  83.9876590  41.3759160
  26.3780930  83.1499020  41.2296980  26.6516070  84.6205990  41.4623300
  17.7253650  84.0096790  54.0375270  17.5861420  84.8819590  54.4062670
  16.8435010  83.6669600  53.8923210  24.0483030  88.9272660  45.3440400
  24.4878940  89.6696990  44.9295790  23.9869920  89.1699230  46.2679360
  19.5234000  89.9518490  56.2460420  19.4949430  90.3561440  55.3788850
  19.3598970  89.0228850  56.0832020  29.5204790  75.2419400  39.6900200
  29.2077450  75.3346230  40.5899270  30.2817260  75.8200430  39.6397630
  16.0386930  82.6079200  44.1477540  15.9184530  83.3341290  43.5358810
  15.7287820  81.8382110  43.6705450  13.6772300  85.7794340  49.9546180
  13.7552720  85.9143110  49.0101900  14.2913980  85.0710230  50.1474300
  14.9219930  87.4794530  46.3652360  14.5148010  87.6209120  45.5105960
  15.8132940  87.1954690  46.1623570  30.8782070  87.9258440  54.7024600
  31.0045130  87.6870320  53.7841780  30.9203450  87.0942980  55.1746680
  26.4179340  89.4229340  41.2601410  25.7244500  89.4206630  40.6003690
  27.1602200  88.9988660  40.8295580  30.7306080  79.9790900  55.6674340
  30.1150350  80.4870570  55.1389800  30.4102500  79.0789230  55.6100280
  13.7331820  86.8208510  52.4940640  13.8962860  86.3513870  51.6760010
  14.1984270  86.3132070  53.1589480  18.5050590  75.9514270  47.5301210
  18.0618740  76.7323810  47.1985730  19.0635580  76.2744160  48.2372150
  22.7920400  78.8182790  53.1336530  22.3299770  79.0265810  53.9456470
  22.3898510  78.0042140  52.8307200  27.7924910  80.0391740  54.2633190
  26.9418500  79.7397490  54.5842260  27.6326700  80.2833750  53.3517010
  24.8874620  81.5393490  56.3631980  25.2128030  80.7057240  56.0234210
  25.6754950  82.0622010  56.5110310  21.6209410  75.5724970  42.4107040
  20.9963590  75.5684840  43.1360350  21.5339530  74.7055930  42.0143010
  20.5426490  76.4961600  49.3890810  20.8398820  77.4024430  49.3082830
  21.0912050  76.0080380  48.7750380  18.2964810  81.0747840  45.2582460
  18.0705730  80.8585010  46.1629080  17.5157340  81.5076300  44.9128430
  25.5262570  81.0811210  43.8573110  24.9271460  81.8047010  43.6736730
  26.0742180  81.0187990  43.0749560  20.7364020  81.9733420  55.9242730
  20.6407620  81.0328150  55.7743130  21.5796000  82.1948490  55.5290800
  24.1327440  79.7174750  45.8876390  24.5257010  80.0346950  45.0745080
  24.4944290  78.8386630  46.0020910  15.8674560  78.3847090  54.0776510
  15.4737950  79.2322300  54.2849290  15.1792960  77.7473460  54.2685150
  22.4419610  78.4682060  57.1473250  21.7517930  78.2754260  57.7819340
  23.1851910  78.7516700  57.6797550  13.1691610  76.3075550  48.1106590
  12.8804660  76.8778410  48.8231570  13.9137370  75.8280000  48.4737820
  13.3561840  80.2495670  39.3209310  13.2736510  81.1926430  39.4624300
  13.0044900  80.1070580  38.4421660  24.7182580  82.3080500  49.9827170
  23.9863700  82.8167310  50.3317270  24.3206920  81.4910480  49.6815950
  21.1559970  78.9834700  48.3879660  21.1596030  78.5424650  47.5384200
  22.0511090  79.3052030  48.4951480  17.0062350  78.8661190  47.3473870
  16.6662400  79.3436420  48.1040920  16.2439670  78.4126310  46.9874970
  21.2180120  79.9846780  41.3786420  21.3392940  79.9433260  42.3272240
  20.8328630  80.8470930  41.2233150  25.1808490  77.7614180  49.3950110
  25.1981230  78.2122830  50.2391960  24.9324070  76.8619820  49.6083550
  20.2301620  82.2947920  40.7769720  19.6618520  81.8466170  40.1505630
  20.9390620  82.6540700  40.2434870  28.6079240  75.1746360  55.2336490
  28.9325010  74.4436020  55.7594470  28.6435750  74.8560000  54.3317480
  15.3070800  86.1959940  54.6536450  14.9225590  85.5553610  55.2519410
  15.6182990  86.8996060  55.2231180  21.4567940  83.0436480  50.1345070
  21.8238070  82.5695050  50.8806410  21.2673000  83.9178050  50.4753410
  14.3208430  77.7880170  46.2638540  14.0355350  77.4235840  47.1017160
  14.2587290  77.0560630  45.6501680  19.2467310  82.0845120  52.4529280
  18.9424380  82.9637100  52.6779640  20.2013770  82.1444910  52.4886720
  17.7749100  86.2906110  43.0496130  17.0011360  85.7503730  42.8894850
  18.5043730  85.7712720  42.7113890  28.5337080  85.2871470  48.8422520
  29.2536200  85.7826760  48.4518630  28.3318900  84.6089360  48.1976390
  23.9947020  76.6809430  42.9851910  23.1811630  76.1822600  42.9097220
  23.8008970  77.5207680  42.5688260  23.9155880  85.3580530  54.7291520
  23.8493190  84.4376200  54.4749110  23.2861020  85.4555970  55.4436160
  26.7095410  81.0529080  41.2814070  27.5975030  81.3646310  41.1065410
  26.6800500  80.1801330  40.8894650  17.8186500  85.9586490  46.6874940
  18.3365170  85.1554750  46.6331830  17.3670520  85.8965630  47.5291770
  22.7056000  87.2252770  41.9602240  23.0471700  87.9695000  41.4645560
  21.8768710  87.5383890  42.3227070  15.3031040  82.9247860  53.6000640
  14.9445980  83.5901710  54.1873980  15.0085600  82.0931410  53.9713260
  18.5044160  83.3832100  56.4840190  18.2044300  83.5289280  55.5868010
  19.2755400  82.8237390  56.3913580  23.8472610  88.1801100  54.4795320
  23.8617150  87.2482060  54.2614230  23.1397710  88.2660860  55.1185090
  28.9809680  82.3640920  40.7493930  28.8973400  82.7955140  39.8990370
  29.7003870  82.8239270  41.1820750  30.0583820  84.8208440  53.8263900
  29.3332010  85.4137220  53.6293290  30.5859280  84.8131980  53.0277270
  30.0096930  89.2183180  43.4776060  29.3673090  88.5638800  43.7519780
  29.6227590  89.6238270  42.7016730  25.5883410  86.5468610  47.3247750
  25.9407230  85.9496740  46.6649120  24.7045740  86.2212840  47.4956000
  21.6746690  87.3066300  44.7318160  22.3617820  87.8535510  45.1125750
  20.8879110  87.8507030  44.7667770  13.8139090  82.9239120  40.2235240
  14.6833940  83.2063920  40.5071160  13.3229410  83.7374990  40.1084050
  20.9773900  84.3112330  44.3443520  21.4336680  85.1217580  44.5703710
  20.6262110  83.9935470  45.1762010  23.2806510  89.8218670  51.5735820
  23.9248730  90.0278050  52.2509240  23.6435950  89.0607070  51.1206670
  16.8785680  74.6549980  44.8166040  16.7500310  74.6467880  45.7650960
  16.0547700  74.9933070  44.4657050  24.5538590  87.8251020  50.2913270
  25.1960820  87.1244180  50.4045440  25.0787940  88.6049460  50.1110160
  28.3994310  88.1099640  40.0152410  28.1731890  87.3930080  40.6077050
  28.0090510  87.8612080  39.1774160  26.3276210  88.6245920  53.4949330
  26.6632450  89.2112610  54.1727250  25.4076550  88.4938630  53.7247120
  13.8779610  76.4141100  54.2772740  13.1638130  76.6138020  54.8825350
  14.2974650  75.6380670  54.6487540  27.9810560  86.0271580  41.6766570
  27.6932260  86.4884270  42.4644450  28.7762730  85.5669350  41.9450790
  22.1564790  88.6737250  56.6637390  21.8361660  87.9546490  57.2083080
  21.4823150  89.3492320  56.7373450  20.1978960  89.5197700  41.6070540
  20.1889060  90.2527390  40.9915050  19.2777320  89.2729280  41.6997500
  15.7985600  84.7412590  42.3517300  15.1913550  85.4811490  42.3612600
  16.2734950  84.8311950  41.5255500  25.3718390  78.9063410  52.0274190
  25.7399210  78.0858620  52.3553760  24.5116590  78.9665300  52.4429840
  28.7380420  77.8620350  42.8361750  28.1093580  77.9666020  42.1219980
  28.2432340  78.0817130  43.6255630  23.1838560  89.5825940  40.2695730
  23.2850540  89.3789930  39.3397710  22.2840300  89.3284220  40.4743510
  20.7064450  80.1406300  44.2519630  19.9980600  80.6092640  44.6933240
  20.9908930  79.4828310  44.8864820  22.3320380  81.5603000  52.2512160
  22.8305630  82.0348820  52.9164010  22.4743330  80.6366520  52.4582190
  24.7379880  76.8656960  45.6915420  24.6147660  76.8843090  44.7424930
  25.6864440  76.9135900  45.8113820  18.9099470  78.4491380  41.6270340
  19.7590000  78.8861530  41.5610530  18.5430740  78.7611640  42.4542400
  29.5387240  77.7770960  53.0940550  29.0360840  78.5176360  53.4334360
  30.3543900  78.1654960  52.7777340  27.8309250  83.0204140  46.5401910
  26.8899390  83.0354370  46.7149600  28.1453320  82.2340100  46.9862210
  17.8090890  84.7023740  40.1005870  18.5754160  84.5905100  40.6631300
  17.8865580  84.0061710  39.4482640  16.5037650  82.1348810  40.7838760
  16.5841240  81.1876320  40.8956160  17.3957400  82.4655690  40.8899420
  14.1897840  88.3517770  43.7614810  13.2637620  88.5938910  43.7520220
  14.6554270  89.1792030  43.6399560  25.1475270  87.5770140  57.0234290
  24.5413430  87.6001740  56.2830040  24.8429380  86.8453180  57.5601540
  14.0308450  83.9563730  56.0194930  14.5347470  83.3771010  56.5911160
  13.2915870  84.2403960  56.5571300  20.9332070  86.6777920  39.5741220
  20.8282710  86.0630270  40.3002600  20.7656290  86.1543810  38.7904230
  21.0846390  85.3634720  55.5530450  20.3192060  85.9319720  55.4685120
  21.2662350  85.0710930  54.6598680  24.1734800  85.7397950  40.1783210
  23.6244900  86.1867250  40.8225950  24.7954060  85.2347200  40.7020880
  28.2269740  87.0940050  56.1105470  28.9679210  87.4315810  55.6072930
  27.4642420  87.2632110  55.5575240  16.0631530  82.0993320  56.9145000
  16.1036870  81.8007190  57.8230230  16.9177030  82.5000930  56.7552520
  19.8409920  84.6988870  42.0748510  20.2626340  84.5328740  42.9179900
  19.9660760  83.8889100  41.5803650  18.0037340  80.6785420  54.8819490
  17.4733800  80.1876370  54.2542830  18.6725410  81.1069620  54.3477420
  22.3537560  83.7226480  39.3225610  22.8743220  83.0075500  38.9566760
  23.0005960  84.3612350  39.6226120  26.9015400  85.1454880  54.6460680
  27.3156420  85.2999960  55.4951100  25.9666400  85.2710100  54.8086460
  27.3737570  82.4851040  56.6499830  27.9558340  81.7303360  56.5620310
  27.5499340  83.0158480  55.8731310  18.4909640  77.6447790  54.9616780
  18.3966510  77.0268540  54.2367650  17.9107030  78.3714080  54.7346690
  21.2571080  76.2021030  51.9944170  20.8088380  76.2245290  51.1489720
  20.6236280  75.8040050  52.5914470  21.6630630  85.0975360  52.6156610
  22.0818740  85.9408090  52.4432850  20.7439260  85.2347400  52.3863390
  23.9994530  82.8291540  53.9994450  24.1190740  82.2332680  54.7389290
  24.8588530  82.8661230  53.5795750  26.3382430  83.3828730  52.5756960
  25.8117650  83.9071350  51.9722100  26.6813770  84.0156120  53.2066690
  18.7368820  80.7722100  39.0206670  18.5357880  79.9089460  39.3820010
  18.5660870  80.6855460  38.0828270  20.7663300  79.3712890  55.2570270
  21.3562990  79.0628740  55.9448090  19.9483540  78.8992640  55.4130170
  25.5856730  78.9878700  55.4903290  24.8972250  78.3260240  55.4253280
  26.3062750  78.5416970  55.9351750  26.2157130  75.5830330  41.5493550
  26.4959420  74.7398230  41.9052970  25.4422860  75.8153440  42.0632300
  17.5351620  77.8722720  39.0084550  17.8377520  77.8790150  38.1003700
  18.2746210  77.5220580  39.5052210  20.7536550  76.8157340  39.9940750
  20.4058550  76.1381330  39.4143200  20.9549320  76.3546850  40.8084140
  16.5581750  87.1765140  39.8414350  16.9956620  87.7194810  40.4971930
  17.0429480  86.3512090  39.8510690  13.7727550  89.9654170  47.2934610
  14.1030560  89.0975230  47.0613250  14.2018550  90.1712690  48.1239570
  18.3689470  88.2963180  44.9536580  18.0685010  88.1728150  45.8540490
  18.2626960  87.4371770  44.5452310  29.8979940  90.3341760  54.3193550
  29.2981930  90.3934320  53.5757470  30.0273840  89.3946740  54.4490400
  31.1381390  88.0759580  39.6563260  30.3074350  88.1436230  40.1270490
  31.3153220  88.9663700  39.3530120  30.5937850  84.8207060  42.1597460
  31.3556760  85.3903710  42.2657150  30.6092220  84.2534260  42.9305770
  14.0942190  83.3444990  46.3905120  13.4391030  83.0756630  45.7464820
  14.9320140  83.2349470  45.9407100  31.5997820  85.6757160  47.0039390
  31.9706650  84.8924480  46.5975360  32.2399750  86.3646260  46.8256690
  28.5831580  87.0593740  52.4169710  27.7691420  87.4890900  52.6795500
  28.9905780  87.6712150  51.8038760  30.6457020  85.1141430  39.3169980
  30.9205860  86.0220310  39.1889200  30.4567760  85.0503960  40.2531970
  27.0432630  78.1386280  40.6123610  27.4617510  77.9517260  39.7720270
  26.7368690  77.2865330  40.9226540  30.5422360  83.0510420  44.3099410
  30.1665960  82.2838350  43.8780700  29.8125480  83.4333120  44.7974340
  15.1318120  83.7297560  50.9308460  15.4991160  83.6424960  51.8104480
  14.5628940  82.9664110  50.8315320  29.9321980  82.1981940  53.9438930
  29.7008070  81.9694690  53.0436880  30.1926530  83.1181490  53.8983820
  14.6834120  80.6406650  54.8366880  13.7890170  80.6073410  55.1760590
  15.2231670  80.8393440  55.6018130  28.3710050  77.4238370  56.7218630
  29.2480230  77.4321770  57.1052630  28.3830890  76.6869210  56.1110980
  13.3080270  80.5543920  42.3330450  12.4044350  80.8174120  42.1582110
  13.7920890  80.8255090  41.5530410  29.8173320  81.2767910  47.6106650
  30.3410800  80.7830560  46.9796820  30.4032740  81.4118270  48.3554220
  29.9963040  81.3607780  51.1326200  29.0465750  81.3271320  51.2471190
  30.1776050  82.2707890  50.8975970  15.8507480  79.6109460  40.2424830
  16.5599180  79.1892680  39.7572110  15.1347420  79.6784690  39.6108180
  15.4981640  75.6648790  39.2827480  16.2209770  76.2057730  39.6008700
  15.7706160  75.3912210  38.4069020  29.3073290  80.5341260  43.5499060
  29.8032410  80.3012130  44.3347940  29.1089360  79.6953100  43.1336700
  15.1873830  74.9154980  49.1850100  15.8350020  74.3652360  48.7445260
  15.6075670  75.1698130  50.0065910  30.7360450  79.1702210  46.0836740
  30.6259730  79.0158250  47.0219010  31.4968040  78.6423150  45.8412150
  29.0826170  75.1096340  52.5419740  29.7198390  75.7230480  52.9078930
  29.2301060  75.1457000  51.5968970  31.6250720  77.0010130  39.3242880
  32.5500030  76.8691310  39.1161170  31.6026510  77.0802950  40.2779330
  31.6989210  77.7720790  41.9499590  30.9040710  77.7065910  42.4792500
  31.9032490  78.7071430  41.9384940  14.9405830  75.0710650  51.9275420
  14.5920650  75.5274470  52.6933600  14.6093530  74.1767780  52.0097850
  16.5470200  88.2430250  56.0928610  16.5039830  87.8723160  56.9743070
  16.6781210  89.1807820  56.2330430  20.2476230  89.7989840  51.6938330
  20.0067590  90.0664400  50.8068850  21.1878870  89.9695570  51.7489190
  22.4530650  76.2622530  55.4494840  22.3919540  76.8544360  56.1990250
  23.3931030  76.1548490  55.3045100  25.0905210  75.9192590  55.0887130
  25.7045620  76.2371880  54.4268210  25.6354770  75.4341180  55.7082990
  15.6126470  74.5986850  55.2026190  16.1609460  74.4174900  54.4392300
  15.6781780  73.8080960  55.7382500  25.8313250  74.4824730  51.4156420
  24.9573090  74.8159840  51.2129350  25.7224000  74.0097910  52.2408290
  26.7385230  76.6895600  52.7998140  26.4098590  75.8747360  52.4199870
  27.6867530  76.6465410  52.6763830  16.0170460  88.5550880  52.1634430
  15.2904520  87.9356170  52.0960380  16.0779610  88.9491490  51.2932510
  23.5788070  75.3994570  50.3549330  22.7959860  75.8740070  50.6346090
  23.2851000  74.4949400  50.2462510  28.1309140  76.1017670  48.3998420
  28.5717230  76.0462770  47.5520020  27.8616730  77.0175680  48.4708600
  29.9947710  75.7332910  46.4107240  29.9336110  74.7894130  46.2638260
  30.7739740  75.8413000  46.9560700  14.9228480  75.7042050  42.8763050
  15.6807840  75.8170930  42.3027080  14.4605650  76.5411250  42.8306480
  21.4642290  77.8181320  45.8665360  20.6516800  77.4438210  45.5261240
  21.9683930  77.0626400  46.1686550  25.9667270  74.4823770  47.1048430
  26.5696640  75.0543980  47.5796950  25.2260260  75.0463210  46.8822330
  29.1101870  74.8845330  42.3788710  29.3052500  75.7828780  42.6456140
  28.3231740  74.6532410  42.8721660  17.2953630  76.2306100  41.4165020
  17.8246390  75.4435900  41.2872970  17.9281950  76.9097290  41.6500550
  19.4891470  75.9681240  44.4710410  18.8594210  75.2668550  44.6380540
  18.9496610  76.7285370  44.2543570  19.6147030  75.2465220  56.9062900
  19.3331300  75.7498820  56.1423720  19.9966730  74.4486970  56.5405030
  17.6670920  88.6305610  41.6976910  17.0379800  89.0990710  42.2462740
  17.7818750  87.7854830  42.1323100  26.2162490  74.6618800  57.4843370
  26.1027940  74.9813410  58.3794890  27.0332230  75.0631310  57.1880650
  25.1220640  82.6811270  27.8478110  25.0414690  81.7665880  27.5769820
  24.7085060  83.1778340  27.1417820  23.2538680  84.4590290  29.7287380
  22.4780780  83.9790730  30.0185950  23.9051610  83.7795940  29.5543540
  17.2704510  84.7710100  30.6063140  16.4389390  84.5158810  31.0059650
  17.8785490  84.8420870  31.3421060  27.2746110  88.8650480  28.5086510
  26.8127640  88.0937720  28.8373680  28.0871660  88.8916550  29.0138960
  17.2505770  88.8050190  30.8021160  17.5533810  87.9147930  30.6231380
  17.9949360  89.3620410  30.5743410  15.6796460  79.7311990  24.3905530
  14.7913160  80.0727960  24.2885410  15.9637650  79.5312310  23.4986360
  13.6429470  82.3317640  30.2745230  14.2145580  81.5639840  30.2748870
  13.6431010  82.6306400  29.3651840  22.6947670  87.1347480  29.7357540
  22.6255950  86.1937420  29.5746670  23.4567530  87.2248890  30.3080110
  14.8854340  77.7402000  32.0614160  14.7057180  76.8427750  32.3416920
  14.4834420  78.2873870  32.7361110  23.7252840  79.9417860  29.9626470
  24.1017660  79.0689740  29.8500140  23.6272350  80.2776560  29.0716910
  17.8557850  78.3143490  25.4243910  17.9624600  79.2147220  25.7312670
  16.9450210  78.2661460  25.1338560  27.5076960  77.4368300  26.8954810
  28.3286580  76.9464870  26.9380290  27.5411040  78.0265960  27.6486650
  15.5041010  80.2362500  30.6696500  16.1851120  80.5000870  31.2883900
  15.1889060  79.3963370  31.0034510  19.6965580  81.2829860  29.7569090
  20.2043800  81.7810830  30.3974110  20.2278820  80.5065060  29.5808450
  31.7976510  79.4535050  33.4598440  31.0928680  79.8416760  32.9413550
  32.0634430  80.1485340  34.0619370  17.9801680  75.9228420  34.0232510
  17.9820120  76.4400810  33.2178410  17.1505990  75.4458600  34.0002440
  24.3672770  86.0347730  25.5222410  23.7490040  86.4997180  24.9585130
  24.8796020  86.7275210  25.9391920  19.2304530  85.5623600  32.2006010
  18.8973910  86.1892520  32.8427080  19.4071210  86.0885480  31.4207680
  27.7438440  79.3768680  29.6682350  27.0394010  79.6653570  30.2485460
  28.1050600  80.1868790  29.3081910  17.6617010  77.6338380  32.0302960
  18.0033820  78.4780430  31.7356830  16.7232820  77.7822120  32.1468300
  18.4423630  87.5304400  34.0155190  19.0597630  88.2055480  33.7339640
  17.5816750  87.9392380  33.9242690  13.7355970  86.7204260  22.8962040
  13.3583950  87.2091360  22.1646940  13.9929040  87.3929540  23.5268570
  29.3601220  88.9943810  31.9309830  28.6764740  89.6642920  31.9226500
  29.8995510  89.1924460  31.1654690  30.8125360  78.8223470  30.0591560
  29.8650270  78.8562450  30.1906990  31.1375350  79.6362420  30.4440920
  21.3444900  75.1220650  28.3547550  21.6519880  74.5667540  27.6383050
  20.4145600  75.2565110  28.1720540  28.1905380  87.5604160  25.7345180
  28.0801710  86.6178490  25.8594600  28.1873630  87.9219800  26.6207940
  26.2945400  85.7417780  31.9737620  26.7114190  85.5277890  31.1391080
  27.0185220  85.9990570  32.5446240  23.7325660  83.1869480  25.0907670
  22.8054940  83.1206860  25.3196140  23.8850480  84.1249610  24.9762910
  23.7194740  79.4586480  22.0874830  22.7798410  79.6200440  22.1727290
  24.0378000  80.1772160  21.5410820  30.2407500  84.1405000  32.0653860
  29.4126130  84.2098090  31.5903990  30.8357980  84.7259310  31.5969690
  27.7622950  84.7489780  25.5942920  27.1435370  84.4109330  24.9469220
  27.7447400  84.1049540  26.3022110  27.2049510  80.9274320  33.0108730
  26.7920690  81.7528030  33.2648720  26.4725460  80.3419360  32.8185090
  19.3382300  83.7134220  27.8727400  18.9339300  83.0011470  27.3773300
  19.4245420  83.3687460  28.7615440  19.8064000  87.4001780  30.0366610
  19.5092290  86.7947250  29.3574390  20.7563820  87.4379090  29.9255970
  18.0510920  80.4877430  31.6526440  18.6025510  80.5972770  30.8779690
  18.5654430  80.8615030  32.3681670  18.8982430  87.1383470  36.6874410
  18.0010960  87.3623440  36.9347810  18.9235300  87.2618410  35.7385810
  25.9387650  83.9876590  22.6015670  26.3780930  83.1499020  22.4553490
  26.6516070  84.6205990  22.6879810  17.7253650  84.0096790  35.2631780
  17.5861420  84.8819590  35.6319180  16.8435010  83.6669600  35.1179720
  24.0483030  88.9272660  26.5696910  24.4878940  89.6696990  26.1552300
  23.9869920  89.1699230  27.4935870  19.5234000  89.9518490  37.4716930
  19.4949430  90.3561440  36.6045360  19.3598970  89.0228850  37.3088530
  29.5204790  75.2419400  20.9156710  29.2077450  75.3346230  21.8155780
  30.2817260  75.8200430  20.8654140  16.0386930  82.6079200  25.3734050
  15.9184530  83.3341290  24.7615320  15.7287820  81.8382110  24.8961960
  13.6772300  85.7794340  31.1802690  13.7552720  85.9143110  30.2358410
  14.2913980  85.0710230  31.3730810  14.9219930  87.4794530  27.5908870
  14.5148010  87.6209120  26.7362470  15.8132940  87.1954690  27.3880080
  30.8782070  87.9258440  35.9281110  31.0045130  87.6870320  35.0098290
  30.9203450  87.0942980  36.4003190  26.4179340  89.4229340  22.4857920
  25.7244500  89.4206630  21.8260200  27.1602200  88.9988660  22.0552090
  30.7306080  79.9790900  36.8930850  30.1150350  80.4870570  36.3646310
  30.4102500  79.0789230  36.8356790  13.7331820  86.8208510  33.7197150
  13.8962860  86.3513870  32.9016520  14.1984270  86.3132070  34.3845990
  18.5050590  75.9514270  28.7557720  18.0618740  76.7323810  28.4242240
  19.0635580  76.2744160  29.4628660  22.7920400  78.8182790  34.3593040
  22.3299770  79.0265810  35.1712980  22.3898510  78.0042140  34.0563710
  27.7924910  80.0391740  35.4889700  26.9418500  79.7397490  35.8098770
  27.6326700  80.2833750  34.5773520  24.8874620  81.5393490  37.5888490
  25.2128030  80.7057240  37.2490720  25.6754950  82.0622010  37.7366820
  21.6209410  75.5724970  23.6363550  20.9963590  75.5684840  24.3616860
  21.5339530  74.7055930  23.2399520  20.5426490  76.4961600  30.6147320
  20.8398820  77.4024430  30.5339340  21.0912050  76.0080380  30.0006890
  18.2964810  81.0747840  26.4838970  18.0705730  80.8585010  27.3885590
  17.5157340  81.5076300  26.1384940  25.5262570  81.0811210  25.0829620
  24.9271460  81.8047010  24.8993240  26.0742180  81.0187990  24.3006070
  20.7364020  81.9733420  37.1499240  20.6407620  81.0328150  36.9999640
  21.5796000  82.1948490  36.7547310  24.1327440  79.7174750  27.1132900
  24.5257010  80.0346950  26.3001590  24.4944290  78.8386630  27.2277420
  15.8674560  78.3847090  35.3033020  15.4737950  79.2322300  35.5105800
  15.1792960  77.7473460  35.4941660  22.4419610  78.4682060  38.3729760
  21.7517930  78.2754260  39.0075850  23.1851910  78.7516700  38.9054060
  13.1691610  76.3075550  29.3363100  12.8804660  76.8778410  30.0488080
  13.9137370  75.8280000  29.6994330  13.3561840  80.2495670  20.5465820
  13.2736510  81.1926430  20.6880810  13.0044900  80.1070580  19.6678170
  24.7182580  82.3080500  31.2083680  23.9863700  82.8167310  31.5573780
  24.3206920  81.4910480  30.9072460  21.1559970  78.9834700  29.6136170
  21.1596030  78.5424650  28.7640710  22.0511090  79.3052030  29.7207990
  17.0062350  78.8661190  28.5730380  16.6662400  79.3436420  29.3297430
  16.2439670  78.4126310  28.2131480  21.2180120  79.9846780  22.6042930
  21.3392940  79.9433260  23.5528750  20.8328630  80.8470930  22.4489660
  25.1808490  77.7614180  30.6206620  25.1981230  78.2122830  31.4648470
  24.9324070  76.8619820  30.8340060  20.2301620  82.2947920  22.0026230
  19.6618520  81.8466170  21.3762140  20.9390620  82.6540700  21.4691380
  28.6079240  75.1746360  36.4593000  28.9325010  74.4436020  36.9850980
  28.6435750  74.8560000  35.5573990  15.3070800  86.1959940  35.8792960
  14.9225590  85.5553610  36.4775920  15.6182990  86.8996060  36.4487690
  21.4567940  83.0436480  31.3601580  21.8238070  82.5695050  32.1062920
  21.2673000  83.9178050  31.7009920  14.3208430  77.7880170  27.4895050
  14.0355350  77.4235840  28.3273670  14.2587290  77.0560630  26.8758190
  19.2467310  82.0845120  33.6785790  18.9424380  82.9637100  33.9036150
  20.2013770  82.1444910  33.7143230  17.7749100  86.2906110  24.2752640
  17.0011360  85.7503730  24.1151360  18.5043730  85.7712720  23.9370400
  28.5337080  85.2871470  30.0679030  29.2536200  85.7826760  29.6775140
  28.3318900  84.6089360  29.4232900  23.9947020  76.6809430  24.2108420
  23.1811630  76.1822600  24.1353730  23.8008970  77.5207680  23.7944770
  23.9155880  85.3580530  35.9548030  23.8493190  84.4376200  35.7005620
  23.2861020  85.4555970  36.6692670  26.7095410  81.0529080  22.5070580
  27.5975030  81.3646310  22.3321920  26.6800500  80.1801330  22.1151160
  17.8186500  85.9586490  27.9131450  18.3365170  85.1554750  27.8588340
  17.3670520  85.8965630  28.7548280  22.7056000  87.2252770  23.1858750
  23.0471700  87.9695000  22.6902070  21.8768710  87.5383890  23.5483580
  15.3031040  82.9247860  34.8257150  14.9445980  83.5901710  35.4130490
  15.0085600  82.0931410  35.1969770  18.5044160  83.3832100  37.7096700
  18.2044300  83.5289280  36.8124520  19.2755400  82.8237390  37.6170090
  23.8472610  88.1801100  35.7051830  23.8617150  87.2482060  35.4870740
  23.1397710  88.2660860  36.3441600  28.9809680  82.3640920  21.9750440
  28.8973400  82.7955140  21.1246880  29.7003870  82.8239270  22.4077260
  30.0583820  84.8208440  35.0520410  29.3332010  85.4137220  34.8549800
  30.5859280  84.8131980  34.2533780  30.0096930  89.2183180  24.7032570
  29.3673090  88.5638800  24.9776290  29.6227590  89.6238270  23.9273240
  25.5883410  86.5468610  28.5504260  25.9407230  85.9496740  27.8905630
  24.7045740  86.2212840  28.7212510  21.6746690  87.3066300  25.9574670
  22.3617820  87.8535510  26.3382260  20.8879110  87.8507030  25.9924280
  13.8139090  82.9239120  21.4491750  14.6833940  83.2063920  21.7327670
  13.3229410  83.7374990  21.3340560  20.9773900  84.3112330  25.5700030
  21.4336680  85.1217580  25.7960220  20.6262110  83.9935470  26.4018520
  23.2806510  89.8218670  32.7992330  23.9248730  90.0278050  33.4765750
  23.6435950  89.0607070  32.3463180  16.8785680  74.6549980  26.0422550
  16.7500310  74.6467880  26.9907470  16.0547700  74.9933070  25.6913560
  24.5538590  87.8251020  31.5169780  25.1960820  87.1244180  31.6301950
  25.0787940  88.6049460  31.3366670  28.3994310  88.1099640  21.2408920
  28.1731890  87.3930080  21.8333560  28.0090510  87.8612080  20.4030670
  26.3276210  88.6245920  34.7205840  26.6632450  89.2112610  35.3983760
  25.4076550  88.4938630  34.9503630  13.8779610  76.4141100  35.5029250
  13.1638130  76.6138020  36.1081860  14.2974650  75.6380670  35.8744050
  27.9810560  86.0271580  22.9023080  27.6932260  86.4884270  23.6900960
  28.7762730  85.5669350  23.1707300  22.1564790  88.6737250  37.8893900
  21.8361660  87.9546490  38.4339590  21.4823150  89.3492320  37.9629960
  20.1978960  89.5197700  22.8327050  20.1889060  90.2527390  22.2171560
  19.2777320  89.2729280  22.9254010  15.7985600  84.7412590  23.5773810
  15.1913550  85.4811490  23.5869110  16.2734950  84.8311950  22.7512010
  25.3718390  78.9063410  33.2530700  25.7399210  78.0858620  33.5810270
  24.5116590  78.9665300  33.6686350  28.7380420  77.8620350  24.0618260
  28.1093580  77.9666020  23.3476490  28.2432340  78.0817130  24.8512140
  23.1838560  89.5825940  21.4952240  23.2850540  89.3789930  20.5654220
  22.2840300  89.3284220  21.7000020  20.7064450  80.1406300  25.4776140
  19.9980600  80.6092640  25.9189750  20.9908930  79.4828310  26.1121330
  22.3320380  81.5603000  33.4768670  22.8305630  82.0348820  34.1420520
  22.4743330  80.6366520  33.6838700  24.7379880  76.8656960  26.9171930
  24.6147660  76.8843090  25.9681440  25.6864440  76.9135900  27.0370330
  18.9099470  78.4491380  22.8526850  19.7590000  78.8861530  22.7867040
  18.5430740  78.7611640  23.6798910  29.5387240  77.7770960  34.3197060
  29.0360840  78.5176360  34.6590870  30.3543900  78.1654960  34.0033850
  27.8309250  83.0204140  27.7658420  26.8899390  83.0354370  27.9406110
  28.1453320  82.2340100  28.2118720  17.8090890  84.7023740  21.3262380
  18.5754160  84.5905100  21.8887810  17.8865580  84.0061710  20.6739150
  16.5037650  82.1348810  22.0095270  16.5841240  81.1876320  22.1212670
  17.3957400  82.4655690  22.1155930  14.1897840  88.3517770  24.9871320
  13.2637620  88.5938910  24.9776730  14.6554270  89.1792030  24.8656070
  25.1475270  87.5770140  38.2490800  24.5413430  87.6001740  37.5086550
  24.8429380  86.8453180  38.7858050  14.0308450  83.9563730  37.2451440
  14.5347470  83.3771010  37.8167670  13.2915870  84.2403960  37.7827810
  20.9332070  86.6777920  20.7997730  20.8282710  86.0630270  21.5259110
  20.7656290  86.1543810  20.0160740  21.0846390  85.3634720  36.7786960
  20.3192060  85.9319720  36.6941630  21.2662350  85.0710930  35.8855190
  24.1734800  85.7397950  21.4039720  23.6244900  86.1867250  22.0482460
  24.7954060  85.2347200  21.9277390  28.2269740  87.0940050  37.3361980
  28.9679210  87.4315810  36.8329440  27.4642420  87.2632110  36.7831750
  16.0631530  82.0993320  38.1401510  16.1036870  81.8007190  39.0486740
  16.9177030  82.5000930  37.9809030  19.8409920  84.6988870  23.3005020
  20.2626340  84.5328740  24.1436410  19.9660760  83.8889100  22.8060160
  18.0037340  80.6785420  36.1076000  17.4733800  80.1876370  35.4799340
  18.6725410  81.1069620  35.5733930  22.3537560  83.7226480  20.5482120
  22.8743220  83.0075500  20.1823270  23.0005960  84.3612350  20.8482630
  26.9015400  85.1454880  35.8717190  27.3156420  85.2999960  36.7207610
  25.9666400  85.2710100  36.0342970  27.3737570  82.4851040  37.8756340
  27.9558340  81.7303360  37.7876820  27.5499340  83.0158480  37.0987820
  18.4909640  77.6447790  36.1873290  18.3966510  77.0268540  35.4624160
  17.9107030  78.3714080  35.9603200  21.2571080  76.2021030  33.2200680
  20.8088380  76.2245290  32.3746230  20.6236280  75.8040050  33.8170980
  21.6630630  85.0975360  33.8413120  22.0818740  85.9408090  33.6689360
  20.7439260  85.2347400  33.6119900  23.9994530  82.8291540  35.2250960
  24.1190740  82.2332680  35.9645800  24.8588530  82.8661230  34.8052260
  26.3382430  83.3828730  33.8013470  25.8117650  83.9071350  33.1978610
  26.6813770  84.0156120  34.4323200  18.7368820  80.7722100  20.2463180
  18.5357880  79.9089460  20.6076520  18.5660870  80.6855460  19.3084780
  20.7663300  79.3712890  36.4826780  21.3562990  79.0628740  37.1704600
  19.9483540  78.8992640  36.6386680  25.5856730  78.9878700  36.7159800
  24.8972250  78.3260240  36.6509790  26.3062750  78.5416970  37.1608260
  26.2157130  75.5830330  22.7750060  26.4959420  74.7398230  23.1309480
  25.4422860  75.8153440  23.2888810  17.5351620  77.8722720  20.2341060
  17.8377520  77.8790150  19.3260210  18.2746210  77.5220580  20.7308720
  20.7536550  76.8157340  21.2197260  20.4058550  76.1381330  20.6399710
  20.9549320  76.3546850  22.0340650  16.5581750  87.1765140  21.0670860
  16.9956620  87.7194810  21.7228440  17.0429480  86.3512090  21.0767200
  13.7727550  89.9654170  28.5191120  14.1030560  89.0975230  28.2869760
  14.2018550  90.1712690  29.3496080  18.3689470  88.2963180  26.1793090
  18.0685010  88.1728150  27.0797000  18.2626960  87.4371770  25.7708820
  29.8979940  90.3341760  35.5450060  29.2981930  90.3934320  34.8013980
  30.0273840  89.3946740  35.6746910  31.1381390  88.0759580  20.8819770
  30.3074350  88.1436230  21.3527000  31.3153220  88.9663700  20.5786630
  30.5937850  84.8207060  23.3853970  31.3556760  85.3903710  23.4913660
  30.6092220  84.2534260  24.1562280  14.0942190  83.3444990  27.6161630
  13.4391030  83.0756630  26.9721330  14.9320140  83.2349470  27.1663610
  31.5997820  85.6757160  28.2295900  31.9706650  84.8924480  27.8231870
  32.2399750  86.3646260  28.0513200  28.5831580  87.0593740  33.6426220
  27.7691420  87.4890900  33.9052010  28.9905780  87.6712150  33.0295270
  30.6457020  85.1141430  20.5426490  30.9205860  86.0220310  20.4145710
  30.4567760  85.0503960  21.4788480  27.0432630  78.1386280  21.8380120
  27.4617510  77.9517260  20.9976780  26.7368690  77.2865330  22.1483050
  30.5422360  83.0510420  25.5355920  30.1665960  82.2838350  25.1037210
  29.8125480  83.4333120  26.0230850  15.1318120  83.7297560  32.1564970
  15.4991160  83.6424960  33.0360990  14.5628940  82.9664110  32.0571830
  29.9321980  82.1981940  35.1695440  29.7008070  81.9694690  34.2693390
  30.1926530  83.1181490  35.1240330  14.6834120  80.6406650  36.0623390
  13.7890170  80.6073410  36.4017100  15.2231670  80.8393440  36.8274640
  28.3710050  77.4238370  37.9475140  29.2480230  77.4321770  38.3309140
  28.3830890  76.6869210  37.3367490  13.3080270  80.5543920  23.5586960
  12.4044350  80.8174120  23.3838620  13.7920890  80.8255090  22.7786920
  29.8173320  81.2767910  28.8363160  30.3410800  80.7830560  28.2053330
  30.4032740  81.4118270  29.5810730  29.9963040  81.3607780  32.3582710
  29.0465750  81.3271320  32.4727700  30.1776050  82.2707890  32.1232480
  15.8507480  79.6109460  21.4681340  16.5599180  79.1892680  20.9828620
  15.1347420  79.6784690  20.8364690  15.4981640  75.6648790  20.5083990
  16.2209770  76.2057730  20.8265210  15.7706160  75.3912210  19.6325530
  29.3073290  80.5341260  24.7755570  29.8032410  80.3012130  25.5604450
  29.1089360  79.6953100  24.3593210  15.1873830  74.9154980  30.4106610
  15.8350020  74.3652360  29.9701770  15.6075670  75.1698130  31.2322420
  30.7360450  79.1702210  27.3093250  30.6259730  79.0158250  28.2475520
  31.4968040  78.6423150  27.0668660  29.0826170  75.1096340  33.7676250
  29.7198390  75.7230480  34.1335440  29.2301060  75.1457000  32.8225480
  31.6250720  77.0010130  20.5499390  32.5500030  76.8691310  20.3417680
  31.6026510  77.0802950  21.5035840  31.6989210  77.7720790  23.1756100
  30.9040710  77.7065910  23.7049010  31.9032490  78.7071430  23.1641450
  14.9405830  75.0710650  33.1531930  14.5920650  75.5274470  33.9190110
  14.6093530  74.1767780  33.2354360  16.5470200  88.2430250  37.3185120
  16.5039830  87.8723160  38.1999580  16.6781210  89.1807820  37.4586940
  20.2476230  89.7989840  32.9194840  20.0067590  90.0664400  32.0325360
  21.1878870  89.9695570  32.9745700  22.4530650  76.2622530  36.6751350
  22.3919540  76.8544360  37.4246760  23.3931030  76.1548490  36.5301610
  25.0905210  75.9192590  36.3143640  25.7045620  76.2371880  35.6524720
  25.6354770  75.4341180  36.9339500  15.6126470  74.5986850  36.4282700
  16.1609460  74.4174900  35.6648810  15.6781780  73.8080960  36.9639010
  25.8313250  74.4824730  32.6412930  24.9573090  74.8159840  32.4385860
  25.7224000  74.0097910  33.4664800  26.7385230  76.6895600  34.0254650
  26.4098590  75.8747360  33.6456380  27.6867530  76.6465410  33.9020340
  16.0170460  88.5550880  33.3890940  15.2904520  87.9356170  33.3216890
  16.0779610  88.9491490  32.5189020  23.5788070  75.3994570  31.5805840
  22.7959860  75.8740070  31.8602600  23.2851000  74.4949400  31.4719020
  28.1309140  76.1017670  29.6254930  28.5717230  76.0462770  28.7776530
  27.8616730  77.0175680  29.6965110  29.9947710  75.7332910  27.6363750
  29.9336110  74.7894130  27.4894770  30.7739740  75.8413000  28.1817210
  14.9228480  75.7042050  24.1019560  15.6807840  75.8170930  23.5283590
  14.4605650  76.5411250  24.0562990  21.4642290  77.8181320  27.0921870
  20.6516800  77.4438210  26.7517750  21.9683930  77.0626400  27.3943060
  25.9667270  74.4823770  28.3304940  26.5696640  75.0543980  28.8053460
  25.2260260  75.0463210  28.1078840  29.1101870  74.8845330  23.6045220
  29.3052500  75.7828780  23.8712650  28.3231740  74.6532410  24.0978170
  17.2953630  76.2306100  22.6421530  17.8246390  75.4435900  22.5129480
  17.9281950  76.9097290  22.8757060  19.4891470  75.9681240  25.6966920
  18.8594210  75.2668550  25.8637050  18.9496610  76.7285370  25.4800080
  19.6147030  75.2465220  38.1319410  19.3331300  75.7498820  37.3680230
  19.9966730  74.4486970  37.7661540  17.6670920  88.6305610  22.9233420
  17.0379800  89.0990710  23.4719250  17.7818750  87.7854830  23.3579610
  26.2162490  74.6618800  38.7099880  26.1027940  74.9813410  39.6051400
  27.0332230  75.0631310  38.4137160  25.1220640  82.6811270   9.0734620
  25.0414690  81.7665880   8.8026330  24.7085060  83.1778340   8.3674330
  23.2538680  84.4590290  10.9543890  22.4780780  83.9790730  11.2442460
  23.9051610  83.7795940  10.7800050  17.2704510  84.7710100  11.8319650
  16.4389390  84.5158810  12.2316160  17.8785490  84.8420870  12.5677570
  27.2746110  88.8650480   9.7343020  26.8127640  88.0937720  10.0630190
  28.0871660  88.8916550  10.2395470  17.2505770  88.8050190  12.0277670
  17.5533810  87.9147930  11.8487890  17.9949360  89.3620410  11.7999920
  15.6796460  79.7311990   5.6162040  14.7913160  80.0727960   5.5141920
  15.9637650  79.5312310   4.7242870  13.6429470  82.3317640  11.5001740
  14.2145580  81.5639840  11.5005380  13.6431010  82.6306400  10.5908350
  22.6947670  87.1347480  10.9614050  22.6255950  86.1937420  10.8003180
  23.4567530  87.2248890  11.5336620  14.8854340  77.7402000  13.2870670
  14.7057180  76.8427750  13.5673430  14.4834420  78.2873870  13.9617620
  23.7252840  79.9417860  11.1882980  24.1017660  79.0689740  11.0756650
  23.6272350  80.2776560  10.2973420  17.8557850  78.3143490   6.6500420
  17.9624600  79.2147220   6.9569180  16.9450210  78.2661460   6.3595070
  27.5076960  77.4368300   8.1211320  28.3286580  76.9464870   8.1636800
  27.5411040  78.0265960   8.8743160  15.5041010  80.2362500  11.8953010
  16.1851120  80.5000870  12.5140410  15.1889060  79.3963370  12.2291020
  19.6965580  81.2829860  10.9825600  20.2043800  81.7810830  11.6230620
  20.2278820  80.5065060  10.8064960  31.7976510  79.4535050  14.6854950
  31.0928680  79.8416760  14.1670060  32.0634430  80.1485340  15.2875880
  17.9801680  75.9228420  15.2489020  17.9820120  76.4400810  14.4434920
  17.1505990  75.4458600  15.2258950  24.3672770  86.0347730   6.7478920
  23.7490040  86.4997180   6.1841640  24.8796020  86.7275210   7.1648430
  19.2304530  85.5623600  13.4262520  18.8973910  86.1892520  14.0683590
  19.4071210  86.0885480  12.6464190  27.7438440  79.3768680  10.8938860
  27.0394010  79.6653570  11.4741970  28.1050600  80.1868790  10.5338420
  17.6617010  77.6338380  13.2559470  18.0033820  78.4780430  12.9613340
  16.7232820  77.7822120  13.3724810  18.4423630  87.5304400  15.2411700
  19.0597630  88.2055480  14.9596150  17.5816750  87.9392380  15.1499200
  13.7355970  86.7204260   4.1218550  13.3583950  87.2091360   3.3903450
  13.9929040  87.3929540   4.7525080  29.3601220  88.9943810  13.1566340
  28.6764740  89.6642920  13.1483010  29.8995510  89.1924460  12.3911200
  30.8125360  78.8223470  11.2848070  29.8650270  78.8562450  11.4163500
  31.1375350  79.6362420  11.6697430  21.3444900  75.1220650   9.5804060
  21.6519880  74.5667540   8.8639560  20.4145600  75.2565110   9.3977050
  28.1905380  87.5604160   6.9601690  28.0801710  86.6178490   7.0851110
  28.1873630  87.9219800   7.8464450  26.2945400  85.7417780  13.1994130
  26.7114190  85.5277890  12.3647590  27.0185220  85.9990570  13.7702750
  23.7325660  83.1869480   6.3164180  22.8054940  83.1206860   6.5452650
  23.8850480  84.1249610   6.2019420  23.7194740  79.4586480   3.3131340
  22.7798410  79.6200440   3.3983800  24.0378000  80.1772160   2.7667330
  30.2407500  84.1405000  13.2910370  29.4126130  84.2098090  12.8160500
  30.8357980  84.7259310  12.8226200  27.7622950  84.7489780   6.8199430
  27.1435370  84.4109330   6.1725730  27.7447400  84.1049540   7.5278620
  27.2049510  80.9274320  14.2365240  26.7920690  81.7528030  14.4905230
  26.4725460  80.3419360  14.0441600  19.3382300  83.7134220   9.0983910
  18.9339300  83.0011470   8.6029810  19.4245420  83.3687460   9.9871950
  19.8064000  87.4001780  11.2623120  19.5092290  86.7947250  10.5830900
  20.7563820  87.4379090  11.1512480  18.0510920  80.4877430  12.8782950
  18.6025510  80.5972770  12.1036200  18.5654430  80.8615030  13.5938180
  18.8982430  87.1383470  17.9130920  18.0010960  87.3623440  18.1604320
  18.9235300  87.2618410  16.9642320  25.9387650  83.9876590   3.8272180
  26.3780930  83.1499020   3.6810000  26.6516070  84.6205990   3.9136320
  17.7253650  84.0096790  16.4888290  17.5861420  84.8819590  16.8575690
  16.8435010  83.6669600  16.3436230  24.0483030  88.9272660   7.7953420
  24.4878940  89.6696990   7.3808810  23.9869920  89.1699230   8.7192380
  19.5234000  89.9518490  18.6973440  19.4949430  90.3561440  17.8301870
  19.3598970  89.0228850  18.5345040  29.5204790  75.2419400   2.1413220
  29.2077450  75.3346230   3.0412290  30.2817260  75.8200430   2.0910650
  16.0386930  82.6079200   6.5990560  15.9184530  83.3341290   5.9871830
  15.7287820  81.8382110   6.1218470  13.6772300  85.7794340  12.4059200
  13.7552720  85.9143110  11.4614920  14.2913980  85.0710230  12.5987320
  14.9219930  87.4794530   8.8165380  14.5148010  87.6209120   7.9618980
  15.8132940  87.1954690   8.6136590  30.8782070  87.9258440  17.1537620
  31.0045130  87.6870320  16.2354800  30.9203450  87.0942980  17.6259700
  26.4179340  89.4229340   3.7114430  25.7244500  89.4206630   3.0516710
  27.1602200  88.9988660   3.2808600  30.7306080  79.9790900  18.1187360
  30.1150350  80.4870570  17.5902820  30.4102500  79.0789230  18.0613300
  13.7331820  86.8208510  14.9453660  13.8962860  86.3513870  14.1273030
  14.1984270  86.3132070  15.6102500  18.5050590  75.9514270   9.9814230
  18.0618740  76.7323810   9.6498750  19.0635580  76.2744160  10.6885170
  22.7920400  78.8182790  15.5849550  22.3299770  79.0265810  16.3969490
  22.3898510  78.0042140  15.2820220  27.7924910  80.0391740  16.7146210
  26.9418500  79.7397490  17.0355280  27.6326700  80.2833750  15.8030030
  24.8874620  81.5393490  18.8145000  25.2128030  80.7057240  18.4747230
  25.6754950  82.0622010  18.9623330  21.6209410  75.5724970   4.8620060
  20.9963590  75.5684840   5.5873370  21.5339530  74.7055930   4.4656030
  20.5426490  76.4961600  11.8403830  20.8398820  77.4024430  11.7595850
  21.0912050  76.0080380  11.2263400  18.2964810  81.0747840   7.7095480
  18.0705730  80.8585010   8.6142100  17.5157340  81.5076300   7.3641450
  25.5262570  81.0811210   6.3086130  24.9271460  81.8047010   6.1249750
  26.0742180  81.0187990   5.5262580  20.7364020  81.9733420  18.3755750
  20.6407620  81.0328150  18.2256150  21.5796000  82.1948490  17.9803820
  24.1327440  79.7174750   8.3389410  24.5257010  80.0346950   7.5258100
  24.4944290  78.8386630   8.4533930  15.8674560  78.3847090  16.5289530
  15.4737950  79.2322300  16.7362310  15.1792960  77.7473460  16.7198170
  22.4419610  78.4682060  19.5986270  21.7517930  78.2754260  20.2332360
  23.1851910  78.7516700  20.1310570  13.1691610  76.3075550  10.5619610
  12.8804660  76.8778410  11.2744590  13.9137370  75.8280000  10.9250840
  24.7182580  82.3080500  12.4340190  23.9863700  82.8167310  12.7830290
  24.3206920  81.4910480  12.1328970  21.1559970  78.9834700  10.8392680
  21.1596030  78.5424650   9.9897220  22.0511090  79.3052030  10.9464500
  17.0062350  78.8661190   9.7986890  16.6662400  79.3436420  10.5553940
  16.2439670  78.4126310   9.4387990  21.2180120  79.9846780   3.8299440
  21.3392940  79.9433260   4.7785260  20.8328630  80.8470930   3.6746170
  25.1808490  77.7614180  11.8463130  25.1981230  78.2122830  12.6904980
  24.9324070  76.8619820  12.0596570  20.2301620  82.2947920   3.2282740
  19.6618520  81.8466170   2.6018650  20.9390620  82.6540700   2.6947890
  28.6079240  75.1746360  17.6849510  28.9325010  74.4436020  18.2107490
  28.6435750  74.8560000  16.7830500  15.3070800  86.1959940  17.1049470
  14.9225590  85.5553610  17.7032430  15.6182990  86.8996060  17.6744200
  21.4567940  83.0436480  12.5858090  21.8238070  82.5695050  13.3319430
  21.2673000  83.9178050  12.9266430  14.3208430  77.7880170   8.7151560
  14.0355350  77.4235840   9.5530180  14.2587290  77.0560630   8.1014700
  19.2467310  82.0845120  14.9042300  18.9424380  82.9637100  15.1292660
  20.2013770  82.1444910  14.9399740  17.7749100  86.2906110   5.5009150
  17.0011360  85.7503730   5.3407870  18.5043730  85.7712720   5.1626910
  28.5337080  85.2871470  11.2935540  29.2536200  85.7826760  10.9031650
  28.3318900  84.6089360  10.6489410  23.9947020  76.6809430   5.4364930
  23.1811630  76.1822600   5.3610240  23.8008970  77.5207680   5.0201280
  23.9155880  85.3580530  17.1804540  23.8493190  84.4376200  16.9262130
  23.2861020  85.4555970  17.8949180  26.7095410  81.0529080   3.7327090
  27.5975030  81.3646310   3.5578430  26.6800500  80.1801330   3.3407670
  17.8186500  85.9586490   9.1387960  18.3365170  85.1554750   9.0844850
  17.3670520  85.8965630   9.9804790  22.7056000  87.2252770   4.4115260
  23.0471700  87.9695000   3.9158580  21.8768710  87.5383890   4.7740090
  15.3031040  82.9247860  16.0513660  14.9445980  83.5901710  16.6387000
  15.0085600  82.0931410  16.4226280  18.5044160  83.3832100  18.9353210
  18.2044300  83.5289280  18.0381030  19.2755400  82.8237390  18.8426600
  23.8472610  88.1801100  16.9308340  23.8617150  87.2482060  16.7127250
  23.1397710  88.2660860  17.5698110  28.9809680  82.3640920   3.2006950
  28.8973400  82.7955140   2.3503390  29.7003870  82.8239270   3.6333770
  30.0583820  84.8208440  16.2776920  29.3332010  85.4137220  16.0806310
  30.5859280  84.8131980  15.4790290  30.0096930  89.2183180   5.9289080
  29.3673090  88.5638800   6.2032800  29.6227590  89.6238270   5.1529750
  25.5883410  86.5468610   9.7760770  25.9407230  85.9496740   9.1162140
  24.7045740  86.2212840   9.9469020  21.6746690  87.3066300   7.1831180
  22.3617820  87.8535510   7.5638770  20.8879110  87.8507030   7.2180790
  13.8139090  82.9239120   2.6748260  14.6833940  83.2063920   2.9584180
  13.3229410  83.7374990   2.5597070  20.9773900  84.3112330   6.7956540
  21.4336680  85.1217580   7.0216730  20.6262110  83.9935470   7.6275030
  23.2806510  89.8218670  14.0248840  23.9248730  90.0278050  14.7022260
  23.6435950  89.0607070  13.5719690  16.8785680  74.6549980   7.2679060
  16.7500310  74.6467880   8.2163980  16.0547700  74.9933070   6.9170070
  24.5538590  87.8251020  12.7426290  25.1960820  87.1244180  12.8558460
  25.0787940  88.6049460  12.5623180  28.3994310  88.1099640   2.4665430
  28.1731890  87.3930080   3.0590070  28.0090510  87.8612080   1.6287180
  26.3276210  88.6245920  15.9462350  26.6632450  89.2112610  16.6240270
  25.4076550  88.4938630  16.1760140  13.8779610  76.4141100  16.7285760
  13.1638130  76.6138020  17.3338370  14.2974650  75.6380670  17.1000560
  27.9810560  86.0271580   4.1279590  27.6932260  86.4884270   4.9157470
  28.7762730  85.5669350   4.3963810  22.1564790  88.6737250  19.1150410
  21.8361660  87.9546490  19.6596100  21.4823150  89.3492320  19.1886470
  20.1978960  89.5197700   4.0583560  20.1889060  90.2527390   3.4428070
  19.2777320  89.2729280   4.1510520  15.7985600  84.7412590   4.8030320
  15.1913550  85.4811490   4.8125620  16.2734950  84.8311950   3.9768520
  25.3718390  78.9063410  14.4787210  25.7399210  78.0858620  14.8066780
  24.5116590  78.9665300  14.8942860  28.7380420  77.8620350   5.2874770
  28.1093580  77.9666020   4.5733000  28.2432340  78.0817130   6.0768650
  23.1838560  89.5825940   2.7208750  23.2850540  89.3789930   1.7910730
  22.2840300  89.3284220   2.9256530  20.7064450  80.1406300   6.7032650
  19.9980600  80.6092640   7.1446260  20.9908930  79.4828310   7.3377840
  22.3320380  81.5603000  14.7025180  22.8305630  82.0348820  15.3677030
  22.4743330  80.6366520  14.9095210  24.7379880  76.8656960   8.1428440
  24.6147660  76.8843090   7.1937950  25.6864440  76.9135900   8.2626840
  18.9099470  78.4491380   4.0783360  19.7590000  78.8861530   4.0123550
  18.5430740  78.7611640   4.9055420  29.5387240  77.7770960  15.5453570
  29.0360840  78.5176360  15.8847380  30.3543900  78.1654960  15.2290360
  27.8309250  83.0204140   8.9914930  26.8899390  83.0354370   9.1662620
  28.1453320  82.2340100   9.4375230  17.8090890  84.7023740   2.5518890
  18.5754160  84.5905100   3.1144320  17.8865580  84.0061710   1.8995660
  16.5037650  82.1348810   3.2351780  16.5841240  81.1876320   3.3469180
  17.3957400  82.4655690   3.3412440  14.1897840  88.3517770   6.2127830
  13.2637620  88.5938910   6.2033240  14.6554270  89.1792030   6.0912580
  25.1475270  87.5770140  19.4747310  24.5413430  87.6001740  18.7343060
  24.8429380  86.8453180  20.0114560  14.0308450  83.9563730  18.4707950
  14.5347470  83.3771010  19.0424180  13.2915870  84.2403960  19.0084320
  21.0846390  85.3634720  18.0043470  20.3192060  85.9319720  17.9198140
  21.2662350  85.0710930  17.1111700  24.1734800  85.7397950   2.6296230
  23.6244900  86.1867250   3.2738970  24.7954060  85.2347200   3.1533900
  28.2269740  87.0940050  18.5618490  28.9679210  87.4315810  18.0585950
  27.4642420  87.2632110  18.0088260  16.0631530  82.0993320  19.3658020
  16.1036870  81.8007190  20.2743250  16.9177030  82.5000930  19.2065540
  19.8409920  84.6988870   4.5261530  20.2626340  84.5328740   5.3692920
  19.9660760  83.8889100   4.0316670  18.0037340  80.6785420  17.3332510
  17.4733800  80.1876370  16.7055850  18.6725410  81.1069620  16.7990440
  26.9015400  85.1454880  17.0973700  27.3156420  85.2999960  17.9464120
  25.9666400  85.2710100  17.2599480  27.3737570  82.4851040  19.1012850
  27.9558340  81.7303360  19.0133330  27.5499340  83.0158480  18.3244330
  18.4909640  77.6447790  17.4129800  18.3966510  77.0268540  16.6880670
  17.9107030  78.3714080  17.1859710  21.2571080  76.2021030  14.4457190
  20.8088380  76.2245290  13.6002740  20.6236280  75.8040050  15.0427490
  21.6630630  85.0975360  15.0669630  22.0818740  85.9408090  14.8945870
  20.7439260  85.2347400  14.8376410  23.9994530  82.8291540  16.4507470
  24.1190740  82.2332680  17.1902310  24.8588530  82.8661230  16.0308770
  26.3382430  83.3828730  15.0269980  25.8117650  83.9071350  14.4235120
  26.6813770  84.0156120  15.6579710  20.7663300  79.3712890  17.7083290
  21.3562990  79.0628740  18.3961110  19.9483540  78.8992640  17.8643190
  25.5856730  78.9878700  17.9416310  24.8972250  78.3260240  17.8766300
  26.3062750  78.5416970  18.3864770  26.2157130  75.5830330   4.0006570
  26.4959420  74.7398230   4.3565990  25.4422860  75.8153440   4.5145320
  20.7536550  76.8157340   2.4453770  20.4058550  76.1381330   1.8656220
  20.9549320  76.3546850   3.2597160  16.5581750  87.1765140   2.2927370
  16.9956620  87.7194810   2.9484950  17.0429480  86.3512090   2.3023710
  13.7727550  89.9654170   9.7447630  14.1030560  89.0975230   9.5126270
  14.2018550  90.1712690  10.5752590  18.3689470  88.2963180   7.4049600
  18.0685010  88.1728150   8.3053510  18.2626960  87.4371770   6.9965330
  29.8979940  90.3341760  16.7706570  29.2981930  90.3934320  16.0270490
  30.0273840  89.3946740  16.9003420  31.1381390  88.0759580   2.1076280
  30.3074350  88.1436230   2.5783510  31.3153220  88.9663700   1.8043140
  30.5937850  84.8207060   4.6110480  31.3556760  85.3903710   4.7170170
  30.6092220  84.2534260   5.3818790  14.0942190  83.3444990   8.8418140
  13.4391030  83.0756630   8.1977840  14.9320140  83.2349470   8.3920120
  31.5997820  85.6757160   9.4552410  31.9706650  84.8924480   9.0488380
  32.2399750  86.3646260   9.2769710  28.5831580  87.0593740  14.8682730
  27.7691420  87.4890900  15.1308520  28.9905780  87.6712150  14.2551780
  30.6457020  85.1141430   1.7683000  30.9205860  86.0220310   1.6402220
  30.4567760  85.0503960   2.7044990  27.0432630  78.1386280   3.0636630
  27.4617510  77.9517260   2.2233290  26.7368690  77.2865330   3.3739560
  30.5422360  83.0510420   6.7612430  30.1665960  82.2838350   6.3293720
  29.8125480  83.4333120   7.2487360  15.1318120  83.7297560  13.3821480
  15.4991160  83.6424960  14.2617500  14.5628940  82.9664110  13.2828340
  29.9321980  82.1981940  16.3951950  29.7008070  81.9694690  15.4949900
  30.1926530  83.1181490  16.3496840  14.6834120  80.6406650  17.2879900
  13.7890170  80.6073410  17.6273610  15.2231670  80.8393440  18.0531150
  28.3710050  77.4238370  19.1731650  29.2480230  77.4321770  19.5565650
  28.3830890  76.6869210  18.5624000  13.3080270  80.5543920   4.7843470
  12.4044350  80.8174120   4.6095130  13.7920890  80.8255090   4.0043430
  29.8173320  81.2767910  10.0619670  30.3410800  80.7830560   9.4309840
  30.4032740  81.4118270  10.8067240  29.9963040  81.3607780  13.5839220
  29.0465750  81.3271320  13.6984210  30.1776050  82.2707890  13.3488990
  15.8507480  79.6109460   2.6937850  16.5599180  79.1892680   2.2085130
  15.1347420  79.6784690   2.0621200  29.3073290  80.5341260   6.0012080
  29.8032410  80.3012130   6.7860960  29.1089360  79.6953100   5.5849720
  15.1873830  74.9154980  11.6363120  15.8350020  74.3652360  11.1958280
  15.6075670  75.1698130  12.4578930  30.7360450  79.1702210   8.5349760
  30.6259730  79.0158250   9.4732030  31.4968040  78.6423150   8.2925170
  29.0826170  75.1096340  14.9932760  29.7198390  75.7230480  15.3591950
  29.2301060  75.1457000  14.0481990  31.6250720  77.0010130   1.7755900
  32.5500030  76.8691310   1.5674190  31.6026510  77.0802950   2.7292350
  31.6989210  77.7720790   4.4012610  30.9040710  77.7065910   4.9305520
  31.9032490  78.7071430   4.3897960  14.9405830  75.0710650  14.3788440
  14.5920650  75.5274470  15.1446620  14.6093530  74.1767780  14.4610870
  16.5470200  88.2430250  18.5441630  16.5039830  87.8723160  19.4256090
  16.6781210  89.1807820  18.6843450  20.2476230  89.7989840  14.1451350
  20.0067590  90.0664400  13.2581870  21.1878870  89.9695570  14.2002210
  22.4530650  76.2622530  17.9007860  22.3919540  76.8544360  18.6503270
  23.3931030  76.1548490  17.7558120  25.0905210  75.9192590  17.5400150
  25.7045620  76.2371880  16.8781230  25.6354770  75.4341180  18.1596010
  15.6126470  74.5986850  17.6539210  16.1609460  74.4174900  16.8905320
  15.6781780  73.8080960  18.1895520  25.8313250  74.4824730  13.8669440
  24.9573090  74.8159840  13.6642370  25.7224000  74.0097910  14.6921310
  26.7385230  76.6895600  15.2511160  26.4098590  75.8747360  14.8712890
  27.6867530  76.6465410  15.1276850  16.0170460  88.5550880  14.6147450
  15.2904520  87.9356170  14.5473400  16.0779610  88.9491490  13.7445530
  23.5788070  75.3994570  12.8062350  22.7959860  75.8740070  13.0859110
  23.2851000  74.4949400  12.6975530  28.1309140  76.1017670  10.8511440
  28.5717230  76.0462770  10.0033040  27.8616730  77.0175680  10.9221620
  29.9947710  75.7332910   8.8620260  29.9336110  74.7894130   8.7151280
  30.7739740  75.8413000   9.4073720  14.9228480  75.7042050   5.3276070
  15.6807840  75.8170930   4.7540100  14.4605650  76.5411250   5.2819500
  21.4642290  77.8181320   8.3178380  20.6516800  77.4438210   7.9774260
  21.9683930  77.0626400   8.6199570  25.9667270  74.4823770   9.5561450
  26.5696640  75.0543980  10.0309970  25.2260260  75.0463210   9.3335350
  29.1101870  74.8845330   4.8301730  29.3052500  75.7828780   5.0969160
  28.3231740  74.6532410   5.3234680  17.2953630  76.2306100   3.8678040
  17.8246390  75.4435900   3.7385990  17.9281950  76.9097290   4.1013570
  19.4891470  75.9681240   6.9223430  18.8594210  75.2668550   7.0893560
  18.9496610  76.7285370   6.7056590  19.6147030  75.2465220  19.3575920
  19.3331300  75.7498820  18.5936740  19.9966730  74.4486970  18.9918050
  17.6670920  88.6305610   4.1489930  17.0379800  89.0990710   4.6975760
  17.7818750  87.7854830   4.5836120  26.2162490  74.6618800  19.9356390
  26.1027940  74.9813410  20.8307910  27.0332230  75.0631310  19.6393670
  25.1220640  63.9067780  65.3965090  25.0414690  62.9922390  65.1256800
  24.7085060  64.4034850  64.6904800  23.2538680  65.6846800  67.2774360
  22.4780780  65.2047240  67.5672930  23.9051610  65.0052450  67.1030520
  17.2704510  65.9966610  68.1550120  16.4389390  65.7415320  68.5546630
  17.8785490  66.0677380  68.8908040  27.2746110  70.0906990  66.0573490
  26.8127640  69.3194230  66.3860660  28.0871660  70.1173060  66.5625940
  17.2505770  70.0306700  68.3508140  17.5533810  69.1404440  68.1718360
  17.9949360  70.5876920  68.1230390  15.6796460  60.9568500  61.9392510
  14.7913160  61.2984470  61.8372390  15.9637650  60.7568820  61.0473340
  13.6429470  63.5574150  67.8232210  14.2145580  62.7896350  67.8235850
  13.6431010  63.8562910  66.9138820  23.5009420  72.3765000  65.6777480
  22.8820860  72.8322500  65.1071920  24.3561200  72.5316460  65.2767180
  22.6947670  68.3603990  67.2844520  22.6255950  67.4193930  67.1233650
  23.4567530  68.4505400  67.8567090  14.8854340  58.9658510  69.6101140
  14.7057180  58.0684260  69.8903900  14.4834420  59.5130380  70.2848090
  23.7252840  61.1674370  67.5113450  24.1017660  60.2946250  67.3987120
  23.6272350  61.5033070  66.6203890  17.8557850  59.5400000  62.9730890
  17.9624600  60.4403730  63.2799650  16.9450210  59.4917970  62.6825540
  27.5076960  58.6624810  64.4441790  28.3286580  58.1721380  64.4867270
  27.5411040  59.2522470  65.1973630  15.5041010  61.4619010  68.2183480
  16.1851120  61.7257380  68.8370880  15.1889060  60.6219880  68.5521490
  19.6965580  62.5086370  67.3056070  20.2043800  63.0067340  67.9461090
  20.2278820  61.7321570  67.1295430  31.7976510  60.6791560  71.0085420
  31.0928680  61.0673270  70.4900530  32.0634430  61.3741850  71.6106350
  17.9801680  57.1484930  71.5719490  17.9820120  57.6657320  70.7665390
  17.1505990  56.6715110  71.5489420  24.3672770  67.2604240  63.0709390
  23.7490040  67.7253690  62.5072110  24.8796020  67.9531720  63.4878900
  19.2304530  66.7880110  69.7492990  18.8973910  67.4149030  70.3914060
  19.4071210  67.3141990  68.9694660  27.7438440  60.6025190  67.2169330
  27.0394010  60.8910080  67.7972440  28.1050600  61.4125300  66.8568890
  17.6617010  58.8594890  69.5789940  18.0033820  59.7036940  69.2843810
  16.7232820  59.0078630  69.6955280  18.4423630  68.7560910  71.5642170
  19.0597630  69.4311990  71.2826620  17.5816750  69.1648890  71.4729670
  13.7355970  67.9460770  60.4449020  13.3583950  68.4347870  59.7133920
  13.9929040  68.6186050  61.0755550  29.3601220  70.2200320  69.4796810
  28.6764740  70.8899430  69.4713480  29.8995510  70.4180970  68.7141670
  30.8125360  60.0479980  67.6078540  29.8650270  60.0818960  67.7393970
  31.1375350  60.8618930  67.9927900  21.3444900  56.3477160  65.9034530
  21.6519880  55.7924050  65.1870030  20.4145600  56.4821620  65.7207520
  26.8959960  72.0644450  68.1941990  26.9087120  71.6606740  67.3264250
  26.3435180  72.8391740  68.0903420  28.1905380  68.7860670  63.2832160
  28.0801710  67.8435000  63.4081580  28.1873630  69.1476310  64.1694920
  26.2945400  66.9674290  69.5224600  26.7114190  66.7534400  68.6878060
  27.0185220  67.2247080  70.0933220  23.7325660  64.4125990  62.6394650
  22.8054940  64.3463370  62.8683120  23.8850480  65.3506120  62.5249890
  23.7194740  60.6842990  59.6361810  22.7798410  60.8456950  59.7214270
  24.0378000  61.4028670  59.0897800  30.2407500  65.3661510  69.6140840
  29.4126130  65.4354600  69.1390970  30.8357980  65.9515820  69.1456670
  27.7622950  65.9746290  63.1429900  27.1435370  65.6365840  62.4956200
  27.7447400  65.3306050  63.8509090  27.2049510  62.1530830  70.5595710
  26.7920690  62.9784540  70.8135700  26.4725460  61.5675870  70.3672070
  19.3382300  64.9390730  65.4214380  18.9339300  64.2267980  64.9260280
  19.4245420  64.5943970  66.3102420  19.8064000  68.6258290  67.5853590
  19.5092290  68.0203760  66.9061370  20.7563820  68.6635600  67.4742950
  18.0510920  61.7133940  69.2013420  18.6025510  61.8229280  68.4266670
  18.5654430  62.0871540  69.9168650  27.8949610  72.1990160  71.2476690
  27.4180170  73.0062350  71.0549300  27.2111400  71.5468490  71.4002900
  18.8982430  68.3639980  74.2361390  18.0010960  68.5879950  74.4834790
  18.9235300  68.4874920  73.2872790  25.9387650  65.2133100  60.1502650
  26.3780930  64.3755530  60.0040470  26.6516070  65.8462500  60.2366790
  17.7253650  65.2353300  72.8118760  17.5861420  66.1076100  73.1806160
  16.8435010  64.8926110  72.6666700  24.0483030  70.1529170  64.1183890
  24.4878940  70.8953500  63.7039280  23.9869920  70.3955740  65.0422850
  19.5234000  71.1775000  75.0203910  19.4949430  71.5817950  74.1532340
  19.3598970  70.2485360  74.8575510  29.5204790  56.4675910  58.4643690
  29.2077450  56.5602740  59.3642760  30.2817260  57.0456940  58.4141120
  16.0386930  63.8335710  62.9221030  15.9184530  64.5597800  62.3102300
  15.7287820  63.0638620  62.4448940  13.6772300  67.0050850  68.7289670
  13.7552720  67.1399620  67.7845390  14.2913980  66.2966740  68.9217790
  14.9219930  68.7051040  65.1395850  14.5148010  68.8465630  64.2849450
  15.8132940  68.4211200  64.9367060  30.8782070  69.1514950  73.4768090
  31.0045130  68.9126830  72.5585270  30.9203450  68.3199490  73.9490170
  24.7398810  72.8542950  72.0462900  25.2543480  72.7650960  72.8485330
  23.8967890  73.2002650  72.3390810  26.7153210  73.1398290  61.4746900
  26.5554350  72.8501230  62.3728730  26.5499920  72.3638420  60.9392130
  19.1941590  72.9196820  63.2518520  19.0184070  72.0032360  63.0386320
  18.3397330  73.2784110  63.4916320  26.4179340  70.6485850  60.0344900
  25.7244500  70.6463140  59.3747180  27.1602200  70.2245170  59.6039070
  25.9829270  72.2748560  64.1093390  26.4386220  71.4937940  64.4232010
  26.3221790  72.9855380  64.6534570  30.7306080  61.2047410  74.4417830
  30.1150350  61.7127080  73.9133290  30.4102500  60.3045740  74.3843770
  13.7331820  68.0465020  71.2684130  13.8962860  67.5770380  70.4503500
  14.1984270  67.5388580  71.9332970  18.5050590  57.1770780  66.3044700
  18.0618740  57.9580320  65.9729220  19.0635580  57.5000670  67.0115640
  22.7920400  60.0439300  71.9080020  22.3299770  60.2522320  72.7199960
  22.3898510  59.2298650  71.6050690  27.7924910  61.2648250  73.0376680
  26.9418500  60.9654000  73.3585750  27.6326700  61.5090260  72.1260500
  24.8874620  62.7650000  75.1375470  25.2128030  61.9313750  74.7977700
  25.6754950  63.2878520  75.2853800  21.6209410  56.7981480  61.1850530
  20.9963590  56.7941350  61.9103840  21.5339530  55.9312440  60.7886500
  20.5426490  57.7218110  68.1634300  20.8398820  58.6280940  68.0826320
  21.0912050  57.2336890  67.5493870  18.2964810  62.3004350  64.0325950
  18.0705730  62.0841520  64.9372570  17.5157340  62.7332810  63.6871920
  25.5262570  62.3067720  62.6316600  24.9271460  63.0303520  62.4480220
  26.0742180  62.2444500  61.8493050  20.7364020  63.1989930  74.6986220
  20.6407620  62.2584660  74.5486620  21.5796000  63.4205000  74.3034290
  24.1327440  60.9431260  64.6619880  24.5257010  61.2603460  63.8488570
  24.4944290  60.0643140  64.7764400  15.8674560  59.6103600  72.8520000
  15.4737950  60.4578810  73.0592780  15.1792960  58.9729970  73.0428640
  13.1691610  57.5332060  66.8850080  12.8804660  58.1034920  67.5975060
  13.9137370  57.0536510  67.2481310  13.3561840  61.4752180  58.0952800
  13.2736510  62.4182940  58.2367790  13.0044900  61.3327090  57.2165150
  24.7182580  63.5337010  68.7570660  23.9863700  64.0423820  69.1060760
  24.3206920  62.7166990  68.4559440  21.1559970  60.2091210  67.1623150
  21.1596030  59.7681160  66.3127690  22.0511090  60.5308540  67.2694970
  17.0062350  60.0917700  66.1217360  16.6662400  60.5692930  66.8784410
  16.2439670  59.6382820  65.7618460  21.2180120  61.2103290  60.1529910
  21.3392940  61.1689770  61.1015730  20.8328630  62.0727440  59.9976640
  25.1808490  58.9870690  68.1693600  25.1981230  59.4379340  69.0135450
  24.9324070  58.0876330  68.3827040  20.2301620  63.5204430  59.5513210
  19.6618520  63.0722680  58.9249120  20.9390620  63.8797210  59.0178360
  28.6079240  56.4002870  74.0079980  28.9325010  55.6692530  74.5337960
  28.6435750  56.0816510  73.1060970  15.3070800  67.4216450  73.4279940
  14.9225590  66.7810120  74.0262900  15.6182990  68.1252570  73.9974670
  21.4567940  64.2692990  68.9088560  21.8238070  63.7951560  69.6549900
  21.2673000  65.1434560  69.2496900  14.3208430  59.0136680  65.0382030
  14.0355350  58.6492350  65.8760650  14.2587290  58.2817140  64.4245170
  19.2467310  63.3101630  71.2272770  18.9424380  64.1893610  71.4523130
  20.2013770  63.3701420  71.2630210  17.7749100  67.5162620  61.8239620
  17.0011360  66.9760240  61.6638340  18.5043730  66.9969230  61.4857380
  28.5337080  66.5127980  67.6166010  29.2536200  67.0083270  67.2262120
  28.3318900  65.8345870  66.9719880  23.9947020  57.9065940  61.7595400
  23.1811630  57.4079110  61.6840710  23.8008970  58.7464190  61.3431750
  23.9155880  66.5837040  73.5035010  23.8493190  65.6632710  73.2492600
  23.2861020  66.6812480  74.2179650  26.7095410  62.2785590  60.0557560
  27.5975030  62.5902820  59.8808900  26.6800500  61.4057840  59.6638140
  17.8186500  67.1843000  65.4618430  18.3365170  66.3811260  65.4075320
  17.3670520  67.1222140  66.3035260  22.7056000  68.4509280  60.7345730
  23.0471700  69.1951510  60.2389050  21.8768710  68.7640400  61.0970560
  15.3031040  64.1504370  72.3744130  14.9445980  64.8158220  72.9617470
  15.0085600  63.3187920  72.7456750  18.5044160  64.6088610  75.2583680
  18.2044300  64.7545790  74.3611500  19.2755400  64.0493900  75.1657070
  23.8472610  69.4057610  73.2538810  23.8617150  68.4738570  73.0357720
  23.1397710  69.4917370  73.8928580  28.9809680  63.5897430  59.5237420
  28.8973400  64.0211650  58.6733860  29.7003870  64.0495780  59.9564240
  30.0583820  66.0464950  72.6007390  29.3332010  66.6393730  72.4036780
  30.5859280  66.0388490  71.8020760  30.0096930  70.4439690  62.2519550
  29.3673090  69.7895310  62.5263270  29.6227590  70.8494780  61.4760220
  25.5883410  67.7725120  66.0991240  25.9407230  67.1753250  65.4392610
  24.7045740  67.4469350  66.2699490  21.6746690  68.5322810  63.5061650
  22.3617820  69.0792020  63.8869240  20.8879110  69.0763540  63.5411260
  13.8139090  64.1495630  58.9978730  14.6833940  64.4320430  59.2814650
  13.3229410  64.9631500  58.8827540  20.9773900  65.5368840  63.1187010
  21.4336680  66.3474090  63.3447200  20.6262110  65.2191980  63.9505500
  23.2806510  71.0475180  70.3479310  23.9248730  71.2534560  71.0252730
  23.6435950  70.2863580  69.8950160  16.8785680  55.8806490  63.5909530
  16.7500310  55.8724390  64.5394450  16.0547700  56.2189580  63.2400540
  24.5538590  69.0507530  69.0656760  25.1960820  68.3500690  69.1788930
  25.0787940  69.8305970  68.8853650  28.3994310  69.3356150  58.7895900
  28.1731890  68.6186590  59.3820540  28.0090510  69.0868590  57.9517650
  26.3276210  69.8502430  72.2692820  26.6632450  70.4369120  72.9470740
  25.4076550  69.7195140  72.4990610  14.1810340  73.3623010  59.5640360
  14.5407980  73.9612350  58.9097630  14.0402680  73.9082900  60.3375390
  13.8779610  57.6397610  73.0516230  13.1638130  57.8394530  73.6568840
  14.2974650  56.8637180  73.4231030  27.9810560  67.2528090  60.4510060
  27.6932260  67.7140780  61.2387940  28.7762730  66.7925860  60.7194280
  14.1652200  71.6277870  74.0382760  14.2743320  70.6872610  73.8978150
  13.5132760  71.8932620  73.3896490  22.1564790  69.8993760  75.4380880
  21.8361660  69.1803000  75.9826570  21.4823150  70.5748830  75.5116940
  20.1978960  70.7454210  60.3814030  20.1889060  71.4783900  59.7658540
  19.2777320  70.4985790  60.4740990  15.7985600  65.9669100  61.1260790
  15.1913550  66.7068000  61.1356090  16.2734950  66.0568460  60.2998990
  25.3718390  60.1319920  70.8017680  25.7399210  59.3115130  71.1297250
  24.5116590  60.1921810  71.2173330  28.7380420  59.0876860  61.6105240
  28.1093580  59.1922530  60.8963470  28.2432340  59.3073640  62.3999120
  23.1838560  70.8082450  59.0439220  23.2850540  70.6046440  58.1141200
  22.2840300  70.5540730  59.2487000  20.7064450  61.3662810  63.0263120
  19.9980600  61.8349150  63.4676730  20.9908930  60.7084820  63.6608310
  22.3320380  62.7859510  71.0255650  22.8305630  63.2605330  71.6907500
  22.4743330  61.8623030  71.2325680  24.7379880  58.0913470  64.4658910
  24.6147660  58.1099600  63.5168420  25.6864440  58.1392410  64.5857310
  21.8256670  73.3268770  63.7386890  22.0798170  73.2890160  62.8166260
  20.8769150  73.2002100  63.7315140  18.9099470  59.6747890  60.4013830
  19.7590000  60.1118040  60.3354020  18.5430740  59.9868150  61.2285890
  29.5387240  59.0027470  71.8684040  29.0360840  59.7432870  72.2077850
  30.3543900  59.3911470  71.5520830  27.8309250  64.2460650  65.3145400
  26.8899390  64.2610880  65.4893090  28.1453320  63.4596610  65.7605700
  17.8090890  65.9280250  58.8749360  18.5754160  65.8161610  59.4374790
  17.8865580  65.2318220  58.2226130  16.5037650  63.3605320  59.5582250
  16.5841240  62.4132830  59.6699650  17.3957400  63.6912200  59.6642910
  29.8334830  71.4169500  66.9899660  29.9582250  72.2400670  67.4623470
  30.7000390  71.2060230  66.6423810  17.3052360  73.5100710  66.6616790
  18.0414840  72.9616170  66.9325360  17.6893280  74.3756720  66.5222780
  14.1897840  69.5774280  62.5358300  13.2637620  69.8195420  62.5263710
  14.6554270  70.4048540  62.4143050  20.4154670  72.6831020  58.4842360
  21.2083280  72.9719850  58.0324150  19.8959020  72.2523190  57.8054840
  26.5775640  72.5306940  74.4087190  27.5297390  72.4464960  74.3587430
  26.4303860  73.1948650  75.0820980  29.4684840  71.9101150  59.9079100
  29.1826350  71.4966290  59.0933280  29.2704390  72.8388860  59.7879620
  14.0308450  65.1820240  74.7938420  14.5347470  64.6027520  75.3654650
  13.2915870  65.4660470  75.3314790  20.9332070  67.9034430  58.3484710
  20.8282710  67.2886780  59.0746090  20.7656290  67.3800320  57.5647720
  21.0846390  66.5891230  74.3273940  20.3192060  67.1576230  74.2428610
  21.2662350  66.2967440  73.4342170  24.1734800  66.9654460  58.9526700
  23.6244900  67.4123760  59.5969440  24.7954060  66.4603710  59.4764370
  28.2269740  68.3196560  74.8848960  28.9679210  68.6572320  74.3816420
  27.4642420  68.4888620  74.3318730  19.8409920  65.9245380  60.8492000
  20.2626340  65.7585250  61.6923390  19.9660760  65.1145610  60.3547140
  18.0037340  61.9041930  73.6562980  17.4733800  61.4132880  73.0286320
  18.6725410  62.3326130  73.1220910  22.3537560  64.9482990  58.0969100
  22.8743220  64.2332010  57.7310250  23.0005960  65.5868860  58.3969610
  26.9015400  66.3711390  73.4204170  27.3156420  66.5256470  74.2694590
  25.9666400  66.4966610  73.5829950  27.3737570  63.7107550  75.4243320
  27.9558340  62.9559870  75.3363800  27.5499340  64.2414990  74.6474800
  18.4909640  58.8704300  73.7360270  18.3966510  58.2525050  73.0111140
  17.9107030  59.5970590  73.5090180  21.2571080  57.4277540  70.7687660
  20.8088380  57.4501800  69.9233210  20.6236280  57.0296560  71.3657960
  21.6630630  66.3231870  71.3900100  22.0818740  67.1664600  71.2176340
  20.7439260  66.4603910  71.1606880  23.9994530  64.0548050  72.7737940
  24.1190740  63.4589190  73.5132780  24.8588530  64.0917740  72.3539240
  26.3382430  64.6085240  71.3500450  25.8117650  65.1327860  70.7465590
  26.6813770  65.2412630  71.9810180  18.7368820  61.9978610  57.7950160
  18.5357880  61.1345970  58.1563500  18.5660870  61.9111970  56.8571760
  19.5138050  72.6284880  72.5057830  18.9759140  73.3530940  72.1866530
  19.7672010  72.1515220  71.7155170  20.7663300  60.5969400  74.0313760
  21.3562990  60.2885250  74.7191580  19.9483540  60.1249150  74.1873660
  25.5856730  60.2135210  74.2646780  24.8972250  59.5516750  74.1996770
  26.3062750  59.7673480  74.7095240  26.2157130  56.8086840  60.3237040
  26.4959420  55.9654740  60.6796460  25.4422860  57.0409950  60.8375790
  17.5351620  59.0979230  57.7828040  17.8377520  59.1046660  56.8747190
  18.2746210  58.7477090  58.2795700  22.3700260  73.8636090  72.7644480
  22.2958960  74.7671230  73.0716850  21.4679100  73.5447990  72.7366550
  20.7536550  58.0413850  58.7684240  20.4058550  57.3637840  58.1886690
  20.9549320  57.5803360  59.5827630  22.9185590  73.0294600  60.3870840
  23.8136380  73.3679570  60.4089600  22.9503220  72.3074010  59.7595120
  16.5581750  68.4021650  58.6157840  16.9956620  68.9451320  59.2715420
  17.0429480  67.5768600  58.6254180  13.7727550  71.1910680  66.0678100
  14.1030560  70.3231740  65.8356740  14.2018550  71.3969200  66.8983060
  18.3689470  69.5219690  63.7280070  18.0685010  69.3984660  64.6283980
  18.2626960  68.6628280  63.3195800  14.2617760  72.0581270  68.8059730
  13.8248750  72.2382070  69.6383880  14.8295440  72.8155890  68.6641450
  29.8979940  71.5598270  73.0937040  29.2981930  71.6190830  72.3500960
  30.0273840  70.6203250  73.2233890  31.1381390  69.3016090  58.4306750
  30.3074350  69.3692740  58.9013980  31.3153220  70.1920210  58.1273610
  30.5937850  66.0463570  60.9340950  31.3556760  66.6160220  61.0400640
  30.6092220  65.4790770  61.7049260  14.0942190  64.5701500  65.1648610
  13.4391030  64.3013140  64.5208310  14.9320140  64.4605980  64.7150590
  31.5997820  66.9013670  65.7782880  31.9706650  66.1180990  65.3718850
  32.2399750  67.5902770  65.6000180  28.5831580  68.2850250  71.1913200
  27.7691420  68.7147410  71.4538990  28.9905780  68.8968660  70.5782250
  30.6457020  66.3397940  58.0913470  30.9205860  67.2476820  57.9632690
  30.4567760  66.2760470  59.0275460  27.0432630  59.3642790  59.3867100
  27.4617510  59.1773770  58.5463760  26.7368690  58.5121840  59.6970030
  30.5422360  64.2766930  63.0842900  30.1665960  63.5094860  62.6524190
  29.8125480  64.6589630  63.5717830  15.1318120  64.9554070  69.7051950
  15.4991160  64.8681470  70.5847970  14.5628940  64.1920620  69.6058810
  29.9321980  63.4238450  72.7182420  29.7008070  63.1951200  71.8180370
  30.1926530  64.3438000  72.6727310  14.6834120  61.8663160  73.6110370
  13.7890170  61.8329920  73.9504080  15.2231670  62.0649950  74.3761620
  28.3710050  58.6494880  75.4962120  29.2480230  58.6578280  75.8796120
  28.3830890  57.9125720  74.8854470  13.3080270  61.7800430  61.1073940
  12.4044350  62.0430630  60.9325600  13.7920890  62.0511600  60.3273900
  29.8173320  62.5024420  66.3850140  30.3410800  62.0087070  65.7540310
  30.4032740  62.6374780  67.1297710  29.9963040  62.5864290  69.9069690
  29.0465750  62.5527830  70.0214680  30.1776050  63.4964400  69.6719460
  15.8507480  60.8365970  59.0168320  16.5599180  60.4149190  58.5315600
  15.1347420  60.9041200  58.3851670  15.4981640  56.8905300  58.0570970
  16.2209770  57.4314240  58.3752190  15.7706160  56.6168720  57.1812510
  29.3073290  61.7597770  62.3242550  29.8032410  61.5268640  63.1091430
  29.1089360  60.9209610  61.9080190  15.1873830  56.1411490  67.9593590
  15.8350020  55.5908870  67.5188750  15.6075670  56.3954640  68.7809400
  30.7360450  60.3958720  64.8580230  30.6259730  60.2414760  65.7962500
  31.4968040  59.8679660  64.6155640  29.0826170  56.3352850  71.3163230
  29.7198390  56.9486990  71.6822420  29.2301060  56.3713510  70.3712460
  31.6250720  58.2266640  58.0986370  32.5500030  58.0947820  57.8904660
  31.6026510  58.3059460  59.0522820  31.6989210  58.9977300  60.7243080
  30.9040710  58.9322420  61.2535990  31.9032490  59.9327940  60.7128430
  28.6407630  73.0368850  64.7181470  29.2366700  72.7153420  64.0415890
  28.8985780  72.5640670  65.5094740  14.9405830  56.2967160  70.7018910
  14.5920650  56.7530980  71.4677090  14.6093530  55.4024290  70.7841340
  16.5470200  69.4686760  74.8672100  16.5039830  69.0979670  75.7486560
  16.6781210  70.4064330  75.0073920  20.2476230  71.0246350  70.4681820
  20.0067590  71.2920910  69.5812340  21.1878870  71.1952080  70.5232680
  22.4530650  57.4879040  74.2238330  22.3919540  58.0800870  74.9733740
  23.3931030  57.3805000  74.0788590  25.0905210  57.1449100  73.8630620
  25.7045620  57.4628390  73.2011700  25.6354770  56.6597690  74.4826480
  31.5080390  73.0440730  71.2692460  31.0138670  73.4409600  70.5519590
  30.8993680  72.4189940  71.6629740  15.6126470  55.8243360  73.9769680
  16.1609460  55.6431410  73.2135790  15.6781780  55.0337470  74.5125990
  16.3858230  72.4149010  71.9869880  15.7918550  72.2833710  72.7259920
  16.3782070  71.5787150  71.5211980  25.8313250  55.7081240  70.1899910
  24.9573090  56.0416350  69.9872840  25.7224000  55.2354420  71.0151780
  26.7385230  57.9152110  71.5741630  26.4098590  57.1003870  71.1943360
  27.6867530  57.8721920  71.4507320  29.1919840  73.6864150  68.5479200
  28.7322810  74.4379960  68.1737220  28.5632300  72.9670620  68.4894000
  16.0170460  69.7807390  70.9377920  15.2904520  69.1612680  70.8703870
  16.0779610  70.1748000  70.0676000  19.6215560  71.9952390  67.7227330
  20.1380580  71.3839750  67.1975590  20.2712940  72.4981170  68.2138340
  22.3611060  72.8860880  68.5496310  22.6488870  72.6315180  67.6729320
  22.8734280  72.3338240  69.1401880  23.5788070  56.6251080  69.1292820
  22.7959860  57.0996580  69.4089580  23.2851000  55.7205910  69.0206000
  28.1309140  57.3274180  67.1741910  28.5717230  57.2719280  66.3263510
  27.8616730  58.2432190  67.2452090  29.9947710  56.9589420  65.1850730
  29.9336110  56.0150640  65.0381750  30.7739740  57.0669510  65.7304190
  14.3000460  73.0981780  64.1474680  14.1322500  72.4652460  64.8456570
  13.4334970  73.3041180  63.7968870  14.9228480  56.9298560  61.6506540
  15.6807840  57.0427440  61.0770570  14.4605650  57.7667760  61.6049970
  21.4642290  59.0437830  64.6408850  20.6516800  58.6694720  64.3004730
  21.9683930  58.2882910  64.9430040  25.9667270  55.7080280  65.8791920
  26.5696640  56.2800490  66.3540440  25.2260260  56.2719720  65.6565820
  29.1101870  56.1101840  61.1532200  29.3052500  57.0085290  61.4199630
  28.3231740  55.8788920  61.6465150  15.9063160  71.7915010  61.5924820
  15.3810780  72.1723040  60.8886780  15.8307740  72.4165780  62.3134530
  17.2953630  57.4562610  60.1908510  17.8246390  56.6692410  60.0616460
  17.9281950  58.1353800  60.4244040  19.4891470  57.1937750  63.2453900
  18.8594210  56.4925060  63.4124030  18.9496610  57.9541880  63.0287060
  22.4283420  73.8076980  75.9164510  23.3550730  73.5721250  75.9600470
  22.4133850  74.6348980  75.4350540  30.6628480  73.3502550  62.9138760
  30.8380670  72.6640290  62.2699680  29.9650050  73.8749600  62.5215430
  19.6147030  56.4721730  75.6806390  19.3331300  56.9755330  74.9167210
  19.9966730  55.6743480  75.3148520  18.5056130  73.7397390  60.4674070
  19.2374950  73.4556670  59.9197960  18.7649800  73.5010670  61.3573450
  17.6670920  69.8562120  60.4720400  17.0379800  70.3247220  61.0206230
  17.7818750  69.0111340  60.9066590  25.1220640  63.9067780  46.6221600
  25.0414690  62.9922390  46.3513310  24.7085060  64.4034850  45.9161310
  23.2538680  65.6846800  48.5030870  22.4780780  65.2047240  48.7929440
  23.9051610  65.0052450  48.3287030  17.2704510  65.9966610  49.3806630
  16.4389390  65.7415320  49.7803140  17.8785490  66.0677380  50.1164550
  27.2746110  70.0906990  47.2830000  26.8127640  69.3194230  47.6117170
  28.0871660  70.1173060  47.7882450  17.2505770  70.0306700  49.5764650
  17.5533810  69.1404440  49.3974870  17.9949360  70.5876920  49.3486900
  15.6796460  60.9568500  43.1649020  14.7913160  61.2984470  43.0628900
  15.9637650  60.7568820  42.2729850  13.6429470  63.5574150  49.0488720
  14.2145580  62.7896350  49.0492360  13.6431010  63.8562910  48.1395330
  23.5009420  72.3765000  46.9033990  22.8820860  72.8322500  46.3328430
  24.3561200  72.5316460  46.5023690  22.6947670  68.3603990  48.5101030
  22.6255950  67.4193930  48.3490160  23.4567530  68.4505400  49.0823600
  14.8854340  58.9658510  50.8357650  14.7057180  58.0684260  51.1160410
  14.4834420  59.5130380  51.5104600  23.7252840  61.1674370  48.7369960
  24.1017660  60.2946250  48.6243630  23.6272350  61.5033070  47.8460400
  17.8557850  59.5400000  44.1987400  17.9624600  60.4403730  44.5056160
  16.9450210  59.4917970  43.9082050  27.5076960  58.6624810  45.6698300
  28.3286580  58.1721380  45.7123780  27.5411040  59.2522470  46.4230140
  15.5041010  61.4619010  49.4439990  16.1851120  61.7257380  50.0627390
  15.1889060  60.6219880  49.7778000  19.6965580  62.5086370  48.5312580
  20.2043800  63.0067340  49.1717600  20.2278820  61.7321570  48.3551940
  31.7976510  60.6791560  52.2341930  31.0928680  61.0673270  51.7157040
  32.0634430  61.3741850  52.8362860  17.9801680  57.1484930  52.7976000
  17.9820120  57.6657320  51.9921900  17.1505990  56.6715110  52.7745930
  24.3672770  67.2604240  44.2965900  23.7490040  67.7253690  43.7328620
  24.8796020  67.9531720  44.7135410  19.2304530  66.7880110  50.9749500
  18.8973910  67.4149030  51.6170570  19.4071210  67.3141990  50.1951170
  27.7438440  60.6025190  48.4425840  27.0394010  60.8910080  49.0228950
  28.1050600  61.4125300  48.0825400  17.6617010  58.8594890  50.8046450
  18.0033820  59.7036940  50.5100320  16.7232820  59.0078630  50.9211790
  18.4423630  68.7560910  52.7898680  19.0597630  69.4311990  52.5083130
  17.5816750  69.1648890  52.6986180  13.7355970  67.9460770  41.6705530
  13.3583950  68.4347870  40.9390430  13.9929040  68.6186050  42.3012060
  29.3601220  70.2200320  50.7053320  28.6764740  70.8899430  50.6969990
  29.8995510  70.4180970  49.9398180  30.8125360  60.0479980  48.8335050
  29.8650270  60.0818960  48.9650480  31.1375350  60.8618930  49.2184410
  26.8959960  72.0644450  49.4198500  26.9087120  71.6606740  48.5520760
  26.3435180  72.8391740  49.3159930  28.1905380  68.7860670  44.5088670
  28.0801710  67.8435000  44.6338090  28.1873630  69.1476310  45.3951430
  26.2945400  66.9674290  50.7481110  26.7114190  66.7534400  49.9134570
  27.0185220  67.2247080  51.3189730  23.7325660  64.4125990  43.8651160
  22.8054940  64.3463370  44.0939630  23.8850480  65.3506120  43.7506400
  23.7194740  60.6842990  40.8618320  22.7798410  60.8456950  40.9470780
  24.0378000  61.4028670  40.3154310  30.2407500  65.3661510  50.8397350
  29.4126130  65.4354600  50.3647480  30.8357980  65.9515820  50.3713180
  27.7622950  65.9746290  44.3686410  27.1435370  65.6365840  43.7212710
  27.7447400  65.3306050  45.0765600  27.2049510  62.1530830  51.7852220
  26.7920690  62.9784540  52.0392210  26.4725460  61.5675870  51.5928580
  19.3382300  64.9390730  46.6470890  18.9339300  64.2267980  46.1516790
  19.4245420  64.5943970  47.5358930  19.8064000  68.6258290  48.8110100
  19.5092290  68.0203760  48.1317880  20.7563820  68.6635600  48.6999460
  18.0510920  61.7133940  50.4269930  18.6025510  61.8229280  49.6523180
  18.5654430  62.0871540  51.1425160  27.8949610  72.1990160  52.4733200
  27.4180170  73.0062350  52.2805810  27.2111400  71.5468490  52.6259410
  18.8982430  68.3639980  55.4617900  18.0010960  68.5879950  55.7091300
  18.9235300  68.4874920  54.5129300  25.9387650  65.2133100  41.3759160
  26.3780930  64.3755530  41.2296980  26.6516070  65.8462500  41.4623300
  17.7253650  65.2353300  54.0375270  17.5861420  66.1076100  54.4062670
  16.8435010  64.8926110  53.8923210  24.0483030  70.1529170  45.3440400
  24.4878940  70.8953500  44.9295790  23.9869920  70.3955740  46.2679360
  19.5234000  71.1775000  56.2460420  19.4949430  71.5817950  55.3788850
  19.3598970  70.2485360  56.0832020  29.5204790  56.4675910  39.6900200
  29.2077450  56.5602740  40.5899270  30.2817260  57.0456940  39.6397630
  16.0386930  63.8335710  44.1477540  15.9184530  64.5597800  43.5358810
  15.7287820  63.0638620  43.6705450  31.4748820  71.9602100  57.5424590
  31.9508540  72.4384990  58.2213670  32.0955980  71.8919590  56.8170090
  13.6772300  67.0050850  49.9546180  13.7552720  67.1399620  49.0101900
  14.2913980  66.2966740  50.1474300  14.9219930  68.7051040  46.3652360
  14.5148010  68.8465630  45.5105960  15.8132940  68.4211200  46.1623570
  30.8782070  69.1514950  54.7024600  31.0045130  68.9126830  53.7841780
  30.9203450  68.3199490  55.1746680  24.7398810  72.8542950  53.2719410
  25.2543480  72.7650960  54.0741840  23.8967890  73.2002650  53.5647320
  26.7153210  73.1398290  42.7003410  26.5554350  72.8501230  43.5985240
  26.5499920  72.3638420  42.1648640  19.1941590  72.9196820  44.4775030
  19.0184070  72.0032360  44.2642830  18.3397330  73.2784110  44.7172830
  26.4179340  70.6485850  41.2601410  25.7244500  70.6463140  40.6003690
  27.1602200  70.2245170  40.8295580  25.9829270  72.2748560  45.3349900
  26.4386220  71.4937940  45.6488520  26.3221790  72.9855380  45.8791080
  30.7306080  61.2047410  55.6674340  30.1150350  61.7127080  55.1389800
  30.4102500  60.3045740  55.6100280  13.7331820  68.0465020  52.4940640
  13.8962860  67.5770380  51.6760010  14.1984270  67.5388580  53.1589480
  22.7920400  60.0439300  53.1336530  22.3299770  60.2522320  53.9456470
  22.3898510  59.2298650  52.8307200  27.7924910  61.2648250  54.2633190
  26.9418500  60.9654000  54.5842260  27.6326700  61.5090260  53.3517010
  24.8874620  62.7650000  56.3631980  25.2128030  61.9313750  56.0234210
  25.6754950  63.2878520  56.5110310  20.5426490  57.7218110  49.3890810
  20.8398820  58.6280940  49.3082830  21.0912050  57.2336890  48.7750380
  18.2964810  62.3004350  45.2582460  18.0705730  62.0841520  46.1629080
  17.5157340  62.7332810  44.9128430  25.5262570  62.3067720  43.8573110
  24.9271460  63.0303520  43.6736730  26.0742180  62.2444500  43.0749560
  20.7364020  63.1989930  55.9242730  20.6407620  62.2584660  55.7743130
  21.5796000  63.4205000  55.5290800  24.1327440  60.9431260  45.8876390
  24.5257010  61.2603460  45.0745080  24.4944290  60.0643140  46.0020910
  15.8674560  59.6103600  54.0776510  15.4737950  60.4578810  54.2849290
  15.1792960  58.9729970  54.2685150  22.4419610  59.6938570  57.1473250
  21.7517930  59.5010770  57.7819340  23.1851910  59.9773210  57.6797550
  13.3561840  61.4752180  39.3209310  13.2736510  62.4182940  39.4624300
  13.0044900  61.3327090  38.4421660  24.7182580  63.5337010  49.9827170
  23.9863700  64.0423820  50.3317270  24.3206920  62.7166990  49.6815950
  21.1559970  60.2091210  48.3879660  21.1596030  59.7681160  47.5384200
  22.0511090  60.5308540  48.4951480  17.0062350  60.0917700  47.3473870
  16.6662400  60.5692930  48.1040920  16.2439670  59.6382820  46.9874970
  21.2180120  61.2103290  41.3786420  21.3392940  61.1689770  42.3272240
  20.8328630  62.0727440  41.2233150  25.1808490  58.9870690  49.3950110
  25.1981230  59.4379340  50.2391960  24.9324070  58.0876330  49.6083550
  20.2301620  63.5204430  40.7769720  19.6618520  63.0722680  40.1505630
  20.9390620  63.8797210  40.2434870  28.6079240  56.4002870  55.2336490
  28.9325010  55.6692530  55.7594470  28.6435750  56.0816510  54.3317480
  15.3070800  67.4216450  54.6536450  14.9225590  66.7810120  55.2519410
  15.6182990  68.1252570  55.2231180  21.4567940  64.2692990  50.1345070
  21.8238070  63.7951560  50.8806410  21.2673000  65.1434560  50.4753410
  19.2467310  63.3101630  52.4529280  18.9424380  64.1893610  52.6779640
  20.2013770  63.3701420  52.4886720  17.7749100  67.5162620  43.0496130
  17.0011360  66.9760240  42.8894850  18.5043730  66.9969230  42.7113890
  28.5337080  66.5127980  48.8422520  29.2536200  67.0083270  48.4518630
  28.3318900  65.8345870  48.1976390  23.9947020  57.9065940  42.9851910
  23.1811630  57.4079110  42.9097220  23.8008970  58.7464190  42.5688260
  23.9155880  66.5837040  54.7291520  23.8493190  65.6632710  54.4749110
  23.2861020  66.6812480  55.4436160  26.7095410  62.2785590  41.2814070
  27.5975030  62.5902820  41.1065410  26.6800500  61.4057840  40.8894650
  17.8186500  67.1843000  46.6874940  18.3365170  66.3811260  46.6331830
  17.3670520  67.1222140  47.5291770  22.7056000  68.4509280  41.9602240
  23.0471700  69.1951510  41.4645560  21.8768710  68.7640400  42.3227070
  15.3031040  64.1504370  53.6000640  14.9445980  64.8158220  54.1873980
  15.0085600  63.3187920  53.9713260  18.5044160  64.6088610  56.4840190
  18.2044300  64.7545790  55.5868010  19.2755400  64.0493900  56.3913580
  23.8472610  69.4057610  54.4795320  23.8617150  68.4738570  54.2614230
  23.1397710  69.4917370  55.1185090  28.9809680  63.5897430  40.7493930
  28.8973400  64.0211650  39.8990370  29.7003870  64.0495780  41.1820750
  30.0583820  66.0464950  53.8263900  29.3332010  66.6393730  53.6293290
  30.5859280  66.0388490  53.0277270  30.0096930  70.4439690  43.4776060
  29.3673090  69.7895310  43.7519780  29.6227590  70.8494780  42.7016730
  25.5883410  67.7725120  47.3247750  25.9407230  67.1753250  46.6649120
  24.7045740  67.4469350  47.4956000  21.6746690  68.5322810  44.7318160
  22.3617820  69.0792020  45.1125750  20.8879110  69.0763540  44.7667770
  13.8139090  64.1495630  40.2235240  14.6833940  64.4320430  40.5071160
  13.3229410  64.9631500  40.1084050  20.9773900  65.5368840  44.3443520
  21.4336680  66.3474090  44.5703710  20.6262110  65.2191980  45.1762010
  23.2806510  71.0475180  51.5735820  23.9248730  71.2534560  52.2509240
  23.6435950  70.2863580  51.1206670  24.5538590  69.0507530  50.2913270
  25.1960820  68.3500690  50.4045440  25.0787940  69.8305970  50.1110160
  28.3994310  69.3356150  40.0152410  28.1731890  68.6186590  40.6077050
  28.0090510  69.0868590  39.1774160  26.3276210  69.8502430  53.4949330
  26.6632450  70.4369120  54.1727250  25.4076550  69.7195140  53.7247120
  14.1810340  73.3623010  40.7896870  14.5407980  73.9612350  40.1354140
  14.0402680  73.9082900  41.5631900  13.8779610  57.6397610  54.2772740
  13.1638130  57.8394530  54.8825350  14.2974650  56.8637180  54.6487540
  27.9810560  67.2528090  41.6766570  27.6932260  67.7140780  42.4644450
  28.7762730  66.7925860  41.9450790  14.1652200  71.6277870  55.2639270
  14.2743320  70.6872610  55.1234660  13.5132760  71.8932620  54.6153000
  22.1564790  69.8993760  56.6637390  21.8361660  69.1803000  57.2083080
  21.4823150  70.5748830  56.7373450  20.1978960  70.7454210  41.6070540
  20.1889060  71.4783900  40.9915050  19.2777320  70.4985790  41.6997500
  15.7985600  65.9669100  42.3517300  15.1913550  66.7068000  42.3612600
  16.2734950  66.0568460  41.5255500  25.3718390  60.1319920  52.0274190
  25.7399210  59.3115130  52.3553760  24.5116590  60.1921810  52.4429840
  23.1838560  70.8082450  40.2695730  23.2850540  70.6046440  39.3397710
  22.2840300  70.5540730  40.4743510  20.7064450  61.3662810  44.2519630
  19.9980600  61.8349150  44.6933240  20.9908930  60.7084820  44.8864820
  22.3320380  62.7859510  52.2512160  22.8305630  63.2605330  52.9164010
  22.4743330  61.8623030  52.4582190  21.8256670  73.3268770  44.9643400
  22.0798170  73.2890160  44.0422770  20.8769150  73.2002100  44.9571650
  18.9099470  59.6747890  41.6270340  19.7590000  60.1118040  41.5610530
  18.5430740  59.9868150  42.4542400  29.5387240  59.0027470  53.0940550
  29.0360840  59.7432870  53.4334360  30.3543900  59.3911470  52.7777340
  27.8309250  64.2460650  46.5401910  26.8899390  64.2610880  46.7149600
  28.1453320  63.4596610  46.9862210  17.8090890  65.9280250  40.1005870
  18.5754160  65.8161610  40.6631300  17.8865580  65.2318220  39.4482640
  16.5037650  63.3605320  40.7838760  16.5841240  62.4132830  40.8956160
  17.3957400  63.6912200  40.8899420  29.8334830  71.4169500  48.2156170
  29.9582250  72.2400670  48.6879980  30.7000390  71.2060230  47.8680320
  17.3052360  73.5100710  47.8873300  18.0414840  72.9616170  48.1581870
  17.6893280  74.3756720  47.7479290  14.1897840  69.5774280  43.7614810
  13.2637620  69.8195420  43.7520220  14.6554270  70.4048540  43.6399560
  16.3110640  72.6946780  57.0758880  17.1123370  73.0158830  57.4894280
  15.7962460  72.3342360  57.7978790  20.4154670  72.6831020  39.7098870
  21.2083280  72.9719850  39.2580660  19.8959020  72.2523190  39.0311350
  25.1475270  68.8026650  57.0234290  24.5413430  68.8258250  56.2830040
  24.8429380  68.0709690  57.5601540  26.5775640  72.5306940  55.6343700
  27.5297390  72.4464960  55.5843940  26.4303860  73.1948650  56.3077490
  29.4684840  71.9101150  41.1335610  29.1826350  71.4966290  40.3189790
  29.2704390  72.8388860  41.0136130  14.0308450  65.1820240  56.0194930
  14.5347470  64.6027520  56.5911160  13.2915870  65.4660470  56.5571300
  20.9332070  67.9034430  39.5741220  20.8282710  67.2886780  40.3002600
  20.7656290  67.3800320  38.7904230  21.0846390  66.5891230  55.5530450
  20.3192060  67.1576230  55.4685120  21.2662350  66.2967440  54.6598680
  24.1734800  66.9654460  40.1783210  23.6244900  67.4123760  40.8225950
  24.7954060  66.4603710  40.7020880  28.2269740  68.3196560  56.1105470
  28.9679210  68.6572320  55.6072930  27.4642420  68.4888620  55.5575240
  16.0631530  63.3249830  56.9145000  16.1036870  63.0263700  57.8230230
  16.9177030  63.7257440  56.7552520  19.8409920  65.9245380  42.0748510
  20.2626340  65.7585250  42.9179900  19.9660760  65.1145610  41.5803650
  18.0037340  61.9041930  54.8819490  17.4733800  61.4132880  54.2542830
  18.6725410  62.3326130  54.3477420  22.3537560  64.9482990  39.3225610
  22.8743220  64.2332010  38.9566760  23.0005960  65.5868860  39.6226120
  26.9015400  66.3711390  54.6460680  27.3156420  66.5256470  55.4951100
  25.9666400  66.4966610  54.8086460  27.3737570  63.7107550  56.6499830
  27.9558340  62.9559870  56.5620310  27.5499340  64.2414990  55.8731310
  18.4909640  58.8704300  54.9616780  18.3966510  58.2525050  54.2367650
  17.9107030  59.5970590  54.7346690  21.2571080  57.4277540  51.9944170
  20.8088380  57.4501800  51.1489720  20.6236280  57.0296560  52.5914470
  21.6630630  66.3231870  52.6156610  22.0818740  67.1664600  52.4432850
  20.7439260  66.4603910  52.3863390  23.9994530  64.0548050  53.9994450
  24.1190740  63.4589190  54.7389290  24.8588530  64.0917740  53.5795750
  26.3382430  64.6085240  52.5756960  25.8117650  65.1327860  51.9722100
  26.6813770  65.2412630  53.2066690  18.7368820  61.9978610  39.0206670
  18.5357880  61.1345970  39.3820010  18.5660870  61.9111970  38.0828270
  19.5138050  72.6284880  53.7314340  18.9759140  73.3530940  53.4123040
  19.7672010  72.1515220  52.9411680  20.7663300  60.5969400  55.2570270
  21.3562990  60.2885250  55.9448090  19.9483540  60.1249150  55.4130170
  25.5856730  60.2135210  55.4903290  24.8972250  59.5516750  55.4253280
  26.3062750  59.7673480  55.9351750  26.2157130  56.8086840  41.5493550
  26.4959420  55.9654740  41.9052970  25.4422860  57.0409950  42.0632300
  17.5351620  59.0979230  39.0084550  17.8377520  59.1046660  38.1003700
  18.2746210  58.7477090  39.5052210  22.3700260  73.8636090  53.9900990
  22.2958960  74.7671230  54.2973360  21.4679100  73.5447990  53.9623060
  20.7536550  58.0413850  39.9940750  20.4058550  57.3637840  39.4143200
  20.9549320  57.5803360  40.8084140  22.9185590  73.0294600  41.6127350
  23.8136380  73.3679570  41.6346110  22.9503220  72.3074010  40.9851630
  16.5581750  68.4021650  39.8414350  16.9956620  68.9451320  40.4971930
  17.0429480  67.5768600  39.8510690  13.7727550  71.1910680  47.2934610
  14.1030560  70.3231740  47.0613250  14.2018550  71.3969200  48.1239570
  18.3689470  69.5219690  44.9536580  18.0685010  69.3984660  45.8540490
  18.2626960  68.6628280  44.5452310  14.2617760  72.0581270  50.0316240
  13.8248750  72.2382070  50.8640390  14.8295440  72.8155890  49.8897960
  29.8979940  71.5598270  54.3193550  29.2981930  71.6190830  53.5757470
  30.0273840  70.6203250  54.4490400  31.1381390  69.3016090  39.6563260
  30.3074350  69.3692740  40.1270490  31.3153220  70.1920210  39.3530120
  30.5937850  66.0463570  42.1597460  31.3556760  66.6160220  42.2657150
  30.6092220  65.4790770  42.9305770  14.0942190  64.5701500  46.3905120
  13.4391030  64.3013140  45.7464820  14.9320140  64.4605980  45.9407100
  31.5997820  66.9013670  47.0039390  31.9706650  66.1180990  46.5975360
  32.2399750  67.5902770  46.8256690  28.5831580  68.2850250  52.4169710
  27.7691420  68.7147410  52.6795500  28.9905780  68.8968660  51.8038760
  30.6457020  66.3397940  39.3169980  30.9205860  67.2476820  39.1889200
  30.4567760  66.2760470  40.2531970  27.0432630  59.3642790  40.6123610
  27.4617510  59.1773770  39.7720270  26.7368690  58.5121840  40.9226540
  30.5422360  64.2766930  44.3099410  30.1665960  63.5094860  43.8780700
  29.8125480  64.6589630  44.7974340  15.1318120  64.9554070  50.9308460
  15.4991160  64.8681470  51.8104480  14.5628940  64.1920620  50.8315320
  29.9321980  63.4238450  53.9438930  29.7008070  63.1951200  53.0436880
  30.1926530  64.3438000  53.8983820  14.6834120  61.8663160  54.8366880
  13.7890170  61.8329920  55.1760590  15.2231670  62.0649950  55.6018130
  28.3710050  58.6494880  56.7218630  29.2480230  58.6578280  57.1052630
  28.3830890  57.9125720  56.1110980  13.3080270  61.7800430  42.3330450
  12.4044350  62.0430630  42.1582110  13.7920890  62.0511600  41.5530410
  29.8173320  62.5024420  47.6106650  30.3410800  62.0087070  46.9796820
  30.4032740  62.6374780  48.3554220  29.9963040  62.5864290  51.1326200
  29.0465750  62.5527830  51.2471190  30.1776050  63.4964400  50.8975970
  15.8507480  60.8365970  40.2424830  16.5599180  60.4149190  39.7572110
  15.1347420  60.9041200  39.6108180  15.4981640  56.8905300  39.2827480
  16.2209770  57.4314240  39.6008700  15.7706160  56.6168720  38.4069020
  29.0826170  56.3352850  52.5419740  29.7198390  56.9486990  52.9078930
  29.2301060  56.3713510  51.5968970  28.6407630  73.0368850  45.9437980
  29.2366700  72.7153420  45.2672400  28.8985780  72.5640670  46.7351250
  14.9405830  56.2967160  51.9275420  14.5920650  56.7530980  52.6933600
  14.6093530  55.4024290  52.0097850  16.5470200  69.4686760  56.0928610
  16.5039830  69.0979670  56.9743070  16.6781210  70.4064330  56.2330430
  20.2476230  71.0246350  51.6938330  20.0067590  71.2920910  50.8068850
  21.1878870  71.1952080  51.7489190  22.4530650  57.4879040  55.4494840
  22.3919540  58.0800870  56.1990250  23.3931030  57.3805000  55.3045100
  25.0905210  57.1449100  55.0887130  25.7045620  57.4628390  54.4268210
  25.6354770  56.6597690  55.7082990  31.5080390  73.0440730  52.4948970
  31.0138670  73.4409600  51.7776100  30.8993680  72.4189940  52.8886250
  15.6126470  55.8243360  55.2026190  16.1609460  55.6431410  54.4392300
  15.6781780  55.0337470  55.7382500  16.3858230  72.4149010  53.2126390
  15.7918550  72.2833710  53.9516430  16.3782070  71.5787150  52.7468490
  25.8313250  55.7081240  51.4156420  24.9573090  56.0416350  51.2129350
  25.7224000  55.2354420  52.2408290  26.7385230  57.9152110  52.7998140
  26.4098590  57.1003870  52.4199870  27.6867530  57.8721920  52.6763830
  29.1919840  73.6864150  49.7735710  28.7322810  74.4379960  49.3993730
  28.5632300  72.9670620  49.7150510  16.0170460  69.7807390  52.1634430
  15.2904520  69.1612680  52.0960380  16.0779610  70.1748000  51.2932510
  19.6215560  71.9952390  48.9483840  20.1380580  71.3839750  48.4232100
  20.2712940  72.4981170  49.4394850  22.3611060  72.8860880  49.7752820
  22.6488870  72.6315180  48.8985830  22.8734280  72.3338240  50.3658390
  23.5788070  56.6251080  50.3549330  22.7959860  57.0996580  50.6346090
  23.2851000  55.7205910  50.2462510  28.1309140  57.3274180  48.3998420
  28.5717230  57.2719280  47.5520020  27.8616730  58.2432190  48.4708600
  14.3000460  73.0981780  45.3731190  14.1322500  72.4652460  46.0713080
  13.4334970  73.3041180  45.0225380  15.9063160  71.7915010  42.8181330
  15.3810780  72.1723040  42.1143290  15.8307740  72.4165780  43.5391040
  17.2953630  57.4562610  41.4165020  17.8246390  56.6692410  41.2872970
  17.9281950  58.1353800  41.6500550  22.4283420  73.8076980  57.1421020
  23.3550730  73.5721250  57.1856980  22.4133850  74.6348980  56.6607050
  30.6628480  73.3502550  44.1395270  30.8380670  72.6640290  43.4956190
  29.9650050  73.8749600  43.7471940  19.6147030  56.4721730  56.9062900
  19.3331300  56.9755330  56.1423720  19.9966730  55.6743480  56.5405030
  18.5056130  73.7397390  41.6930580  19.2374950  73.4556670  41.1454470
  18.7649800  73.5010670  42.5829960  17.6670920  69.8562120  41.6976910
  17.0379800  70.3247220  42.2462740  17.7818750  69.0111340  42.1323100
  26.2162490  55.8875310  57.4843370  26.1027940  56.2069920  58.3794890
  27.0332230  56.2887820  57.1880650  28.9960980  73.0346840  56.9662060
  29.7886300  72.5396070  56.7588020  29.2894130  73.7136980  57.5737670
  25.1220640  63.9067780  27.8478110  25.0414690  62.9922390  27.5769820
  24.7085060  64.4034850  27.1417820  23.2538680  65.6846800  29.7287380
  22.4780780  65.2047240  30.0185950  23.9051610  65.0052450  29.5543540
  17.2704510  65.9966610  30.6063140  16.4389390  65.7415320  31.0059650
  17.8785490  66.0677380  31.3421060  27.2746110  70.0906990  28.5086510
  26.8127640  69.3194230  28.8373680  28.0871660  70.1173060  29.0138960
  17.2505770  70.0306700  30.8021160  17.5533810  69.1404440  30.6231380
  17.9949360  70.5876920  30.5743410  15.6796460  60.9568500  24.3905530
  14.7913160  61.2984470  24.2885410  15.9637650  60.7568820  23.4986360
  13.6429470  63.5574150  30.2745230  14.2145580  62.7896350  30.2748870
  13.6431010  63.8562910  29.3651840  23.5009420  72.3765000  28.1290500
  22.8820860  72.8322500  27.5584940  24.3561200  72.5316460  27.7280200
  22.6947670  68.3603990  29.7357540  22.6255950  67.4193930  29.5746670
  23.4567530  68.4505400  30.3080110  14.8854340  58.9658510  32.0614160
  14.7057180  58.0684260  32.3416920  14.4834420  59.5130380  32.7361110
  23.7252840  61.1674370  29.9626470  24.1017660  60.2946250  29.8500140
  23.6272350  61.5033070  29.0716910  17.8557850  59.5400000  25.4243910
  17.9624600  60.4403730  25.7312670  16.9450210  59.4917970  25.1338560
  27.5076960  58.6624810  26.8954810  28.3286580  58.1721380  26.9380290
  27.5411040  59.2522470  27.6486650  15.5041010  61.4619010  30.6696500
  16.1851120  61.7257380  31.2883900  15.1889060  60.6219880  31.0034510
  19.6965580  62.5086370  29.7569090  20.2043800  63.0067340  30.3974110
  20.2278820  61.7321570  29.5808450  31.7976510  60.6791560  33.4598440
  31.0928680  61.0673270  32.9413550  32.0634430  61.3741850  34.0619370
  17.9801680  57.1484930  34.0232510  17.9820120  57.6657320  33.2178410
  17.1505990  56.6715110  34.0002440  24.3672770  67.2604240  25.5222410
  23.7490040  67.7253690  24.9585130  24.8796020  67.9531720  25.9391920
  19.2304530  66.7880110  32.2006010  18.8973910  67.4149030  32.8427080
  19.4071210  67.3141990  31.4207680  27.7438440  60.6025190  29.6682350
  27.0394010  60.8910080  30.2485460  28.1050600  61.4125300  29.3081910
  17.6617010  58.8594890  32.0302960  18.0033820  59.7036940  31.7356830
  16.7232820  59.0078630  32.1468300  18.4423630  68.7560910  34.0155190
  19.0597630  69.4311990  33.7339640  17.5816750  69.1648890  33.9242690
  13.7355970  67.9460770  22.8962040  13.3583950  68.4347870  22.1646940
  13.9929040  68.6186050  23.5268570  29.3601220  70.2200320  31.9309830
  28.6764740  70.8899430  31.9226500  29.8995510  70.4180970  31.1654690
  30.8125360  60.0479980  30.0591560  29.8650270  60.0818960  30.1906990
  31.1375350  60.8618930  30.4440920  21.3444900  56.3477160  28.3547550
  21.6519880  55.7924050  27.6383050  20.4145600  56.4821620  28.1720540
  26.8959960  72.0644450  30.6455010  26.9087120  71.6606740  29.7777270
  26.3435180  72.8391740  30.5416440  28.1905380  68.7860670  25.7345180
  28.0801710  67.8435000  25.8594600  28.1873630  69.1476310  26.6207940
  26.2945400  66.9674290  31.9737620  26.7114190  66.7534400  31.1391080
  27.0185220  67.2247080  32.5446240  23.7325660  64.4125990  25.0907670
  22.8054940  64.3463370  25.3196140  23.8850480  65.3506120  24.9762910
  23.7194740  60.6842990  22.0874830  22.7798410  60.8456950  22.1727290
  24.0378000  61.4028670  21.5410820  30.2407500  65.3661510  32.0653860
  29.4126130  65.4354600  31.5903990  30.8357980  65.9515820  31.5969690
  27.7622950  65.9746290  25.5942920  27.1435370  65.6365840  24.9469220
  27.7447400  65.3306050  26.3022110  27.2049510  62.1530830  33.0108730
  26.7920690  62.9784540  33.2648720  26.4725460  61.5675870  32.8185090
  19.3382300  64.9390730  27.8727400  18.9339300  64.2267980  27.3773300
  19.4245420  64.5943970  28.7615440  19.8064000  68.6258290  30.0366610
  19.5092290  68.0203760  29.3574390  20.7563820  68.6635600  29.9255970
  18.0510920  61.7133940  31.6526440  18.6025510  61.8229280  30.8779690
  18.5654430  62.0871540  32.3681670  27.8949610  72.1990160  33.6989710
  27.4180170  73.0062350  33.5062320  27.2111400  71.5468490  33.8515920
  18.8982430  68.3639980  36.6874410  18.0010960  68.5879950  36.9347810
  18.9235300  68.4874920  35.7385810  25.9387650  65.2133100  22.6015670
  26.3780930  64.3755530  22.4553490  26.6516070  65.8462500  22.6879810
  17.7253650  65.2353300  35.2631780  17.5861420  66.1076100  35.6319180
  16.8435010  64.8926110  35.1179720  24.0483030  70.1529170  26.5696910
  24.4878940  70.8953500  26.1552300  23.9869920  70.3955740  27.4935870
  19.5234000  71.1775000  37.4716930  19.4949430  71.5817950  36.6045360
  19.3598970  70.2485360  37.3088530  29.5204790  56.4675910  20.9156710
  29.2077450  56.5602740  21.8155780  30.2817260  57.0456940  20.8654140
  16.0386930  63.8335710  25.3734050  15.9184530  64.5597800  24.7615320
  15.7287820  63.0638620  24.8961960  31.4748820  71.9602100  38.7681100
  31.9508540  72.4384990  39.4470180  32.0955980  71.8919590  38.0426600
  13.6772300  67.0050850  31.1802690  13.7552720  67.1399620  30.2358410
  14.2913980  66.2966740  31.3730810  14.9219930  68.7051040  27.5908870
  14.5148010  68.8465630  26.7362470  15.8132940  68.4211200  27.3880080
  30.8782070  69.1514950  35.9281110  31.0045130  68.9126830  35.0098290
  30.9203450  68.3199490  36.4003190  24.7398810  72.8542950  34.4975920
  25.2543480  72.7650960  35.2998350  23.8967890  73.2002650  34.7903830
  26.7153210  73.1398290  23.9259920  26.5554350  72.8501230  24.8241750
  26.5499920  72.3638420  23.3905150  19.1941590  72.9196820  25.7031540
  19.0184070  72.0032360  25.4899340  18.3397330  73.2784110  25.9429340
  26.4179340  70.6485850  22.4857920  25.7244500  70.6463140  21.8260200
  27.1602200  70.2245170  22.0552090  25.9829270  72.2748560  26.5606410
  26.4386220  71.4937940  26.8745030  26.3221790  72.9855380  27.1047590
  30.7306080  61.2047410  36.8930850  30.1150350  61.7127080  36.3646310
  30.4102500  60.3045740  36.8356790  13.7331820  68.0465020  33.7197150
  13.8962860  67.5770380  32.9016520  14.1984270  67.5388580  34.3845990
  18.5050590  57.1770780  28.7557720  18.0618740  57.9580320  28.4242240
  19.0635580  57.5000670  29.4628660  22.7920400  60.0439300  34.3593040
  22.3299770  60.2522320  35.1712980  22.3898510  59.2298650  34.0563710
  27.7924910  61.2648250  35.4889700  26.9418500  60.9654000  35.8098770
  27.6326700  61.5090260  34.5773520  24.8874620  62.7650000  37.5888490
  25.2128030  61.9313750  37.2490720  25.6754950  63.2878520  37.7366820
  21.6209410  56.7981480  23.6363550  20.9963590  56.7941350  24.3616860
  21.5339530  55.9312440  23.2399520  20.5426490  57.7218110  30.6147320
  20.8398820  58.6280940  30.5339340  21.0912050  57.2336890  30.0006890
  18.2964810  62.3004350  26.4838970  18.0705730  62.0841520  27.3885590
  17.5157340  62.7332810  26.1384940  25.5262570  62.3067720  25.0829620
  24.9271460  63.0303520  24.8993240  26.0742180  62.2444500  24.3006070
  20.7364020  63.1989930  37.1499240  20.6407620  62.2584660  36.9999640
  21.5796000  63.4205000  36.7547310  24.1327440  60.9431260  27.1132900
  24.5257010  61.2603460  26.3001590  24.4944290  60.0643140  27.2277420
  15.8674560  59.6103600  35.3033020  15.4737950  60.4578810  35.5105800
  15.1792960  58.9729970  35.4941660  22.4419610  59.6938570  38.3729760
  21.7517930  59.5010770  39.0075850  23.1851910  59.9773210  38.9054060
  13.1691610  57.5332060  29.3363100  12.8804660  58.1034920  30.0488080
  13.9137370  57.0536510  29.6994330  13.3561840  61.4752180  20.5465820
  13.2736510  62.4182940  20.6880810  13.0044900  61.3327090  19.6678170
  24.7182580  63.5337010  31.2083680  23.9863700  64.0423820  31.5573780
  24.3206920  62.7166990  30.9072460  21.1559970  60.2091210  29.6136170
  21.1596030  59.7681160  28.7640710  22.0511090  60.5308540  29.7207990
  17.0062350  60.0917700  28.5730380  16.6662400  60.5692930  29.3297430
  16.2439670  59.6382820  28.2131480  21.2180120  61.2103290  22.6042930
  21.3392940  61.1689770  23.5528750  20.8328630  62.0727440  22.4489660
  25.1808490  58.9870690  30.6206620  25.1981230  59.4379340  31.4648470
  24.9324070  58.0876330  30.8340060  20.2301620  63.5204430  22.0026230
  19.6618520  63.0722680  21.3762140  20.9390620  63.8797210  21.4691380
  28.6079240  56.4002870  36.4593000  28.9325010  55.6692530  36.9850980
  28.6435750  56.0816510  35.5573990  15.3070800  67.4216450  35.8792960
  14.9225590  66.7810120  36.4775920  15.6182990  68.1252570  36.4487690
  21.4567940  64.2692990  31.3601580  21.8238070  63.7951560  32.1062920
  21.2673000  65.1434560  31.7009920  14.3208430  59.0136680  27.4895050
  14.0355350  58.6492350  28.3273670  14.2587290  58.2817140  26.8758190
  19.2467310  63.3101630  33.6785790  18.9424380  64.1893610  33.9036150
  20.2013770  63.3701420  33.7143230  17.7749100  67.5162620  24.2752640
  17.0011360  66.9760240  24.1151360  18.5043730  66.9969230  23.9370400
  28.5337080  66.5127980  30.0679030  29.2536200  67.0083270  29.6775140
  28.3318900  65.8345870  29.4232900  23.9947020  57.9065940  24.2108420
  23.1811630  57.4079110  24.1353730  23.8008970  58.7464190  23.7944770
  23.9155880  66.5837040  35.9548030  23.8493190  65.6632710  35.7005620
  23.2861020  66.6812480  36.6692670  26.7095410  62.2785590  22.5070580
  27.5975030  62.5902820  22.3321920  26.6800500  61.4057840  22.1151160
  17.8186500  67.1843000  27.9131450  18.3365170  66.3811260  27.8588340
  17.3670520  67.1222140  28.7548280  22.7056000  68.4509280  23.1858750
  23.0471700  69.1951510  22.6902070  21.8768710  68.7640400  23.5483580
  15.3031040  64.1504370  34.8257150  14.9445980  64.8158220  35.4130490
  15.0085600  63.3187920  35.1969770  18.5044160  64.6088610  37.7096700
  18.2044300  64.7545790  36.8124520  19.2755400  64.0493900  37.6170090
  23.8472610  69.4057610  35.7051830  23.8617150  68.4738570  35.4870740
  23.1397710  69.4917370  36.3441600  28.9809680  63.5897430  21.9750440
  28.8973400  64.0211650  21.1246880  29.7003870  64.0495780  22.4077260
  30.0583820  66.0464950  35.0520410  29.3332010  66.6393730  34.8549800
  30.5859280  66.0388490  34.2533780  30.0096930  70.4439690  24.7032570
  29.3673090  69.7895310  24.9776290  29.6227590  70.8494780  23.9273240
  25.5883410  67.7725120  28.5504260  25.9407230  67.1753250  27.8905630
  24.7045740  67.4469350  28.7212510  21.6746690  68.5322810  25.9574670
  22.3617820  69.0792020  26.3382260  20.8879110  69.0763540  25.9924280
  13.8139090  64.1495630  21.4491750  14.6833940  64.4320430  21.7327670
  13.3229410  64.9631500  21.3340560  20.9773900  65.5368840  25.5700030
  21.4336680  66.3474090  25.7960220  20.6262110  65.2191980  26.4018520
  23.2806510  71.0475180  32.7992330  23.9248730  71.2534560  33.4765750
  23.6435950  70.2863580  32.3463180  16.8785680  55.8806490  26.0422550
  16.7500310  55.8724390  26.9907470  16.0547700  56.2189580  25.6913560
  24.5538590  69.0507530  31.5169780  25.1960820  68.3500690  31.6301950
  25.0787940  69.8305970  31.3366670  28.3994310  69.3356150  21.2408920
  28.1731890  68.6186590  21.8333560  28.0090510  69.0868590  20.4030670
  26.3276210  69.8502430  34.7205840  26.6632450  70.4369120  35.3983760
  25.4076550  69.7195140  34.9503630  14.1810340  73.3623010  22.0153380
  14.5407980  73.9612350  21.3610650  14.0402680  73.9082900  22.7888410
  13.8779610  57.6397610  35.5029250  13.1638130  57.8394530  36.1081860
  14.2974650  56.8637180  35.8744050  27.9810560  67.2528090  22.9023080
  27.6932260  67.7140780  23.6900960  28.7762730  66.7925860  23.1707300
  14.1652200  71.6277870  36.4895780  14.2743320  70.6872610  36.3491170
  13.5132760  71.8932620  35.8409510  22.1564790  69.8993760  37.8893900
  21.8361660  69.1803000  38.4339590  21.4823150  70.5748830  37.9629960
  20.1978960  70.7454210  22.8327050  20.1889060  71.4783900  22.2171560
  19.2777320  70.4985790  22.9254010  15.7985600  65.9669100  23.5773810
  15.1913550  66.7068000  23.5869110  16.2734950  66.0568460  22.7512010
  25.3718390  60.1319920  33.2530700  25.7399210  59.3115130  33.5810270
  24.5116590  60.1921810  33.6686350  28.7380420  59.0876860  24.0618260
  28.1093580  59.1922530  23.3476490  28.2432340  59.3073640  24.8512140
  23.1838560  70.8082450  21.4952240  23.2850540  70.6046440  20.5654220
  22.2840300  70.5540730  21.7000020  20.7064450  61.3662810  25.4776140
  19.9980600  61.8349150  25.9189750  20.9908930  60.7084820  26.1121330
  22.3320380  62.7859510  33.4768670  22.8305630  63.2605330  34.1420520
  22.4743330  61.8623030  33.6838700  24.7379880  58.0913470  26.9171930
  24.6147660  58.1099600  25.9681440  25.6864440  58.1392410  27.0370330
  21.8256670  73.3268770  26.1899910  22.0798170  73.2890160  25.2679280
  20.8769150  73.2002100  26.1828160  18.9099470  59.6747890  22.8526850
  19.7590000  60.1118040  22.7867040  18.5430740  59.9868150  23.6798910
  29.5387240  59.0027470  34.3197060  29.0360840  59.7432870  34.6590870
  30.3543900  59.3911470  34.0033850  27.8309250  64.2460650  27.7658420
  26.8899390  64.2610880  27.9406110  28.1453320  63.4596610  28.2118720
  17.8090890  65.9280250  21.3262380  18.5754160  65.8161610  21.8887810
  17.8865580  65.2318220  20.6739150  16.5037650  63.3605320  22.0095270
  16.5841240  62.4132830  22.1212670  17.3957400  63.6912200  22.1155930
  29.8334830  71.4169500  29.4412680  29.9582250  72.2400670  29.9136490
  30.7000390  71.2060230  29.0936830  17.3052360  73.5100710  29.1129810
  18.0414840  72.9616170  29.3838380  17.6893280  74.3756720  28.9735800
  14.1897840  69.5774280  24.9871320  13.2637620  69.8195420  24.9776730
  14.6554270  70.4048540  24.8656070  16.3110640  72.6946780  38.3015390
  17.1123370  73.0158830  38.7150790  15.7962460  72.3342360  39.0235300
  20.4154670  72.6831020  20.9355380  21.2083280  72.9719850  20.4837170
  19.8959020  72.2523190  20.2567860  25.1475270  68.8026650  38.2490800
  24.5413430  68.8258250  37.5086550  24.8429380  68.0709690  38.7858050
  26.5775640  72.5306940  36.8600210  27.5297390  72.4464960  36.8100450
  26.4303860  73.1948650  37.5334000  29.4684840  71.9101150  22.3592120
  29.1826350  71.4966290  21.5446300  29.2704390  72.8388860  22.2392640
  14.0308450  65.1820240  37.2451440  14.5347470  64.6027520  37.8167670
  13.2915870  65.4660470  37.7827810  20.9332070  67.9034430  20.7997730
  20.8282710  67.2886780  21.5259110  20.7656290  67.3800320  20.0160740
  21.0846390  66.5891230  36.7786960  20.3192060  67.1576230  36.6941630
  21.2662350  66.2967440  35.8855190  24.1734800  66.9654460  21.4039720
  23.6244900  67.4123760  22.0482460  24.7954060  66.4603710  21.9277390
  28.2269740  68.3196560  37.3361980  28.9679210  68.6572320  36.8329440
  27.4642420  68.4888620  36.7831750  16.0631530  63.3249830  38.1401510
  16.1036870  63.0263700  39.0486740  16.9177030  63.7257440  37.9809030
  19.8409920  65.9245380  23.3005020  20.2626340  65.7585250  24.1436410
  19.9660760  65.1145610  22.8060160  18.0037340  61.9041930  36.1076000
  17.4733800  61.4132880  35.4799340  18.6725410  62.3326130  35.5733930
  22.3537560  64.9482990  20.5482120  22.8743220  64.2332010  20.1823270
  23.0005960  65.5868860  20.8482630  26.9015400  66.3711390  35.8717190
  27.3156420  66.5256470  36.7207610  25.9666400  66.4966610  36.0342970
  27.3737570  63.7107550  37.8756340  27.9558340  62.9559870  37.7876820
  27.5499340  64.2414990  37.0987820  18.4909640  58.8704300  36.1873290
  18.3966510  58.2525050  35.4624160  17.9107030  59.5970590  35.9603200
  21.2571080  57.4277540  33.2200680  20.8088380  57.4501800  32.3746230
  20.6236280  57.0296560  33.8170980  21.6630630  66.3231870  33.8413120
  22.0818740  67.1664600  33.6689360  20.7439260  66.4603910  33.6119900
  23.9994530  64.0548050  35.2250960  24.1190740  63.4589190  35.9645800
  24.8588530  64.0917740  34.8052260  26.3382430  64.6085240  33.8013470
  25.8117650  65.1327860  33.1978610  26.6813770  65.2412630  34.4323200
  18.7368820  61.9978610  20.2463180  18.5357880  61.1345970  20.6076520
  18.5660870  61.9111970  19.3084780  19.5138050  72.6284880  34.9570850
  18.9759140  73.3530940  34.6379550  19.7672010  72.1515220  34.1668190
  20.7663300  60.5969400  36.4826780  21.3562990  60.2885250  37.1704600
  19.9483540  60.1249150  36.6386680  25.5856730  60.2135210  36.7159800
  24.8972250  59.5516750  36.6509790  26.3062750  59.7673480  37.1608260
  26.2157130  56.8086840  22.7750060  26.4959420  55.9654740  23.1309480
  25.4422860  57.0409950  23.2888810  17.5351620  59.0979230  20.2341060
  17.8377520  59.1046660  19.3260210  18.2746210  58.7477090  20.7308720
  22.3700260  73.8636090  35.2157500  22.2958960  74.7671230  35.5229870
  21.4679100  73.5447990  35.1879570  20.7536550  58.0413850  21.2197260
  20.4058550  57.3637840  20.6399710  20.9549320  57.5803360  22.0340650
  22.9185590  73.0294600  22.8383860  23.8136380  73.3679570  22.8602620
  22.9503220  72.3074010  22.2108140  16.5581750  68.4021650  21.0670860
  16.9956620  68.9451320  21.7228440  17.0429480  67.5768600  21.0767200
  13.7727550  71.1910680  28.5191120  14.1030560  70.3231740  28.2869760
  14.2018550  71.3969200  29.3496080  18.3689470  69.5219690  26.1793090
  18.0685010  69.3984660  27.0797000  18.2626960  68.6628280  25.7708820
  14.2617760  72.0581270  31.2572750  13.8248750  72.2382070  32.0896900
  14.8295440  72.8155890  31.1154470  29.8979940  71.5598270  35.5450060
  29.2981930  71.6190830  34.8013980  30.0273840  70.6203250  35.6746910
  31.1381390  69.3016090  20.8819770  30.3074350  69.3692740  21.3527000
  31.3153220  70.1920210  20.5786630  30.5937850  66.0463570  23.3853970
  31.3556760  66.6160220  23.4913660  30.6092220  65.4790770  24.1562280
  14.0942190  64.5701500  27.6161630  13.4391030  64.3013140  26.9721330
  14.9320140  64.4605980  27.1663610  31.5997820  66.9013670  28.2295900
  31.9706650  66.1180990  27.8231870  32.2399750  67.5902770  28.0513200
  28.5831580  68.2850250  33.6426220  27.7691420  68.7147410  33.9052010
  28.9905780  68.8968660  33.0295270  30.6457020  66.3397940  20.5426490
  30.9205860  67.2476820  20.4145710  30.4567760  66.2760470  21.4788480
  27.0432630  59.3642790  21.8380120  27.4617510  59.1773770  20.9976780
  26.7368690  58.5121840  22.1483050  30.5422360  64.2766930  25.5355920
  30.1665960  63.5094860  25.1037210  29.8125480  64.6589630  26.0230850
  15.1318120  64.9554070  32.1564970  15.4991160  64.8681470  33.0360990
  14.5628940  64.1920620  32.0571830  29.9321980  63.4238450  35.1695440
  29.7008070  63.1951200  34.2693390  30.1926530  64.3438000  35.1240330
  14.6834120  61.8663160  36.0623390  13.7890170  61.8329920  36.4017100
  15.2231670  62.0649950  36.8274640  28.3710050  58.6494880  37.9475140
  29.2480230  58.6578280  38.3309140  28.3830890  57.9125720  37.3367490
  13.3080270  61.7800430  23.5586960  12.4044350  62.0430630  23.3838620
  13.7920890  62.0511600  22.7786920  29.8173320  62.5024420  28.8363160
  30.3410800  62.0087070  28.2053330  30.4032740  62.6374780  29.5810730
  29.9963040  62.5864290  32.3582710  29.0465750  62.5527830  32.4727700
  30.1776050  63.4964400  32.1232480  15.8507480  60.8365970  21.4681340
  16.5599180  60.4149190  20.9828620  15.1347420  60.9041200  20.8364690
  15.4981640  56.8905300  20.5083990  16.2209770  57.4314240  20.8265210
  15.7706160  56.6168720  19.6325530  29.3073290  61.7597770  24.7755570
  29.8032410  61.5268640  25.5604450  29.1089360  60.9209610  24.3593210
  15.1873830  56.1411490  30.4106610  15.8350020  55.5908870  29.9701770
  15.6075670  56.3954640  31.2322420  30.7360450  60.3958720  27.3093250
  30.6259730  60.2414760  28.2475520  31.4968040  59.8679660  27.0668660
  29.0826170  56.3352850  33.7676250  29.7198390  56.9486990  34.1335440
  29.2301060  56.3713510  32.8225480  31.6250720  58.2266640  20.5499390
  32.5500030  58.0947820  20.3417680  31.6026510  58.3059460  21.5035840
  31.6989210  58.9977300  23.1756100  30.9040710  58.9322420  23.7049010
  31.9032490  59.9327940  23.1641450  28.6407630  73.0368850  27.1694490
  29.2366700  72.7153420  26.4928910  28.8985780  72.5640670  27.9607760
  14.9405830  56.2967160  33.1531930  14.5920650  56.7530980  33.9190110
  14.6093530  55.4024290  33.2354360  16.5470200  69.4686760  37.3185120
  16.5039830  69.0979670  38.1999580  16.6781210  70.4064330  37.4586940
  20.2476230  71.0246350  32.9194840  20.0067590  71.2920910  32.0325360
  21.1878870  71.1952080  32.9745700  22.4530650  57.4879040  36.6751350
  22.3919540  58.0800870  37.4246760  23.3931030  57.3805000  36.5301610
  25.0905210  57.1449100  36.3143640  25.7045620  57.4628390  35.6524720
  25.6354770  56.6597690  36.9339500  31.5080390  73.0440730  33.7205480
  31.0138670  73.4409600  33.0032610  30.8993680  72.4189940  34.1142760
  15.6126470  55.8243360  36.4282700  16.1609460  55.6431410  35.6648810
  15.6781780  55.0337470  36.9639010  16.3858230  72.4149010  34.4382900
  15.7918550  72.2833710  35.1772940  16.3782070  71.5787150  33.9725000
  25.8313250  55.7081240  32.6412930  24.9573090  56.0416350  32.4385860
  25.7224000  55.2354420  33.4664800  26.7385230  57.9152110  34.0254650
  26.4098590  57.1003870  33.6456380  27.6867530  57.8721920  33.9020340
  29.1919840  73.6864150  30.9992220  28.7322810  74.4379960  30.6250240
  28.5632300  72.9670620  30.9407020  16.0170460  69.7807390  33.3890940
  15.2904520  69.1612680  33.3216890  16.0779610  70.1748000  32.5189020
  19.6215560  71.9952390  30.1740350  20.1380580  71.3839750  29.6488610
  20.2712940  72.4981170  30.6651360  22.3611060  72.8860880  31.0009330
  22.6488870  72.6315180  30.1242340  22.8734280  72.3338240  31.5914900
  23.5788070  56.6251080  31.5805840  22.7959860  57.0996580  31.8602600
  23.2851000  55.7205910  31.4719020  28.1309140  57.3274180  29.6254930
  28.5717230  57.2719280  28.7776530  27.8616730  58.2432190  29.6965110
  29.9947710  56.9589420  27.6363750  29.9336110  56.0150640  27.4894770
  30.7739740  57.0669510  28.1817210  14.3000460  73.0981780  26.5987700
  14.1322500  72.4652460  27.2969590  13.4334970  73.3041180  26.2481890
  14.9228480  56.9298560  24.1019560  15.6807840  57.0427440  23.5283590
  14.4605650  57.7667760  24.0562990  21.4642290  59.0437830  27.0921870
  20.6516800  58.6694720  26.7517750  21.9683930  58.2882910  27.3943060
  25.9667270  55.7080280  28.3304940  26.5696640  56.2800490  28.8053460
  25.2260260  56.2719720  28.1078840  29.1101870  56.1101840  23.6045220
  29.3052500  57.0085290  23.8712650  28.3231740  55.8788920  24.0978170
  15.9063160  71.7915010  24.0437840  15.3810780  72.1723040  23.3399800
  15.8307740  72.4165780  24.7647550  17.2953630  57.4562610  22.6421530
  17.8246390  56.6692410  22.5129480  17.9281950  58.1353800  22.8757060
  19.4891470  57.1937750  25.6966920  18.8594210  56.4925060  25.8637050
  18.9496610  57.9541880  25.4800080  22.4283420  73.8076980  38.3677530
  23.3550730  73.5721250  38.4113490  22.4133850  74.6348980  37.8863560
  30.6628480  73.3502550  25.3651780  30.8380670  72.6640290  24.7212700
  29.9650050  73.8749600  24.9728450  19.6147030  56.4721730  38.1319410
  19.3331300  56.9755330  37.3680230  19.9966730  55.6743480  37.7661540
  18.5056130  73.7397390  22.9187090  19.2374950  73.4556670  22.3710980
  18.7649800  73.5010670  23.8086470  17.6670920  69.8562120  22.9233420
  17.0379800  70.3247220  23.4719250  17.7818750  69.0111340  23.3579610
  26.2162490  55.8875310  38.7099880  26.1027940  56.2069920  39.6051400
  27.0332230  56.2887820  38.4137160  28.9960980  73.0346840  38.1918570
  29.7886300  72.5396070  37.9844530  29.2894130  73.7136980  38.7994180
  25.1220640  63.9067780   9.0734620  25.0414690  62.9922390   8.8026330
  24.7085060  64.4034850   8.3674330  23.2538680  65.6846800  10.9543890
  22.4780780  65.2047240  11.2442460  23.9051610  65.0052450  10.7800050
  17.2704510  65.9966610  11.8319650  16.4389390  65.7415320  12.2316160
  17.8785490  66.0677380  12.5677570  27.2746110  70.0906990   9.7343020
  26.8127640  69.3194230  10.0630190  28.0871660  70.1173060  10.2395470
  17.2505770  70.0306700  12.0277670  17.5533810  69.1404440  11.8487890
  17.9949360  70.5876920  11.7999920  15.6796460  60.9568500   5.6162040
  14.7913160  61.2984470   5.5141920  15.9637650  60.7568820   4.7242870
  13.6429470  63.5574150  11.5001740  14.2145580  62.7896350  11.5005380
  13.6431010  63.8562910  10.5908350  23.5009420  72.3765000   9.3547010
  22.8820860  72.8322500   8.7841450  24.3561200  72.5316460   8.9536710
  22.6947670  68.3603990  10.9614050  22.6255950  67.4193930  10.8003180
  23.4567530  68.4505400  11.5336620  14.8854340  58.9658510  13.2870670
  14.7057180  58.0684260  13.5673430  14.4834420  59.5130380  13.9617620
  23.7252840  61.1674370  11.1882980  24.1017660  60.2946250  11.0756650
  23.6272350  61.5033070  10.2973420  17.8557850  59.5400000   6.6500420
  17.9624600  60.4403730   6.9569180  16.9450210  59.4917970   6.3595070
  27.5076960  58.6624810   8.1211320  28.3286580  58.1721380   8.1636800
  27.5411040  59.2522470   8.8743160  15.5041010  61.4619010  11.8953010
  16.1851120  61.7257380  12.5140410  15.1889060  60.6219880  12.2291020
  19.6965580  62.5086370  10.9825600  20.2043800  63.0067340  11.6230620
  20.2278820  61.7321570  10.8064960  31.7976510  60.6791560  14.6854950
  31.0928680  61.0673270  14.1670060  32.0634430  61.3741850  15.2875880
  17.9801680  57.1484930  15.2489020  17.9820120  57.6657320  14.4434920
  17.1505990  56.6715110  15.2258950  24.3672770  67.2604240   6.7478920
  23.7490040  67.7253690   6.1841640  24.8796020  67.9531720   7.1648430
  19.2304530  66.7880110  13.4262520  18.8973910  67.4149030  14.0683590
  19.4071210  67.3141990  12.6464190  27.7438440  60.6025190  10.8938860
  27.0394010  60.8910080  11.4741970  28.1050600  61.4125300  10.5338420
  17.6617010  58.8594890  13.2559470  18.0033820  59.7036940  12.9613340
  16.7232820  59.0078630  13.3724810  18.4423630  68.7560910  15.2411700
  19.0597630  69.4311990  14.9596150  17.5816750  69.1648890  15.1499200
  13.7355970  67.9460770   4.1218550  13.3583950  68.4347870   3.3903450
  13.9929040  68.6186050   4.7525080  29.3601220  70.2200320  13.1566340
  28.6764740  70.8899430  13.1483010  29.8995510  70.4180970  12.3911200
  30.8125360  60.0479980  11.2848070  29.8650270  60.0818960  11.4163500
  31.1375350  60.8618930  11.6697430  21.3444900  56.3477160   9.5804060
  21.6519880  55.7924050   8.8639560  20.4145600  56.4821620   9.3977050
  26.8959960  72.0644450  11.8711520  26.9087120  71.6606740  11.0033780
  26.3435180  72.8391740  11.7672950  28.1905380  68.7860670   6.9601690
  28.0801710  67.8435000   7.0851110  28.1873630  69.1476310   7.8464450
  26.2945400  66.9674290  13.1994130  26.7114190  66.7534400  12.3647590
  27.0185220  67.2247080  13.7702750  23.7325660  64.4125990   6.3164180
  22.8054940  64.3463370   6.5452650  23.8850480  65.3506120   6.2019420
  23.7194740  60.6842990   3.3131340  22.7798410  60.8456950   3.3983800
  24.0378000  61.4028670   2.7667330  30.2407500  65.3661510  13.2910370
  29.4126130  65.4354600  12.8160500  30.8357980  65.9515820  12.8226200
  27.7622950  65.9746290   6.8199430  27.1435370  65.6365840   6.1725730
  27.7447400  65.3306050   7.5278620  27.2049510  62.1530830  14.2365240
  26.7920690  62.9784540  14.4905230  26.4725460  61.5675870  14.0441600
  19.3382300  64.9390730   9.0983910  18.9339300  64.2267980   8.6029810
  19.4245420  64.5943970   9.9871950  19.8064000  68.6258290  11.2623120
  19.5092290  68.0203760  10.5830900  20.7563820  68.6635600  11.1512480
  18.0510920  61.7133940  12.8782950  18.6025510  61.8229280  12.1036200
  18.5654430  62.0871540  13.5938180  27.8949610  72.1990160  14.9246220
  27.4180170  73.0062350  14.7318830  27.2111400  71.5468490  15.0772430
  18.8982430  68.3639980  17.9130920  18.0010960  68.5879950  18.1604320
  18.9235300  68.4874920  16.9642320  25.9387650  65.2133100   3.8272180
  26.3780930  64.3755530   3.6810000  26.6516070  65.8462500   3.9136320
  17.7253650  65.2353300  16.4888290  17.5861420  66.1076100  16.8575690
  16.8435010  64.8926110  16.3436230  24.0483030  70.1529170   7.7953420
  24.4878940  70.8953500   7.3808810  23.9869920  70.3955740   8.7192380
  19.5234000  71.1775000  18.6973440  19.4949430  71.5817950  17.8301870
  19.3598970  70.2485360  18.5345040  29.5204790  56.4675910   2.1413220
  29.2077450  56.5602740   3.0412290  30.2817260  57.0456940   2.0910650
  16.0386930  63.8335710   6.5990560  15.9184530  64.5597800   5.9871830
  15.7287820  63.0638620   6.1218470  31.4748820  71.9602100  19.9937610
  31.9508540  72.4384990  20.6726690  32.0955980  71.8919590  19.2683110
  13.6772300  67.0050850  12.4059200  13.7552720  67.1399620  11.4614920
  14.2913980  66.2966740  12.5987320  14.9219930  68.7051040   8.8165380
  14.5148010  68.8465630   7.9618980  15.8132940  68.4211200   8.6136590
  30.8782070  69.1514950  17.1537620  31.0045130  68.9126830  16.2354800
  30.9203450  68.3199490  17.6259700  24.7398810  72.8542950  15.7232430
  25.2543480  72.7650960  16.5254860  23.8967890  73.2002650  16.0160340
  26.7153210  73.1398290   5.1516430  26.5554350  72.8501230   6.0498260
  26.5499920  72.3638420   4.6161660  19.1941590  72.9196820   6.9288050
  19.0184070  72.0032360   6.7155850  18.3397330  73.2784110   7.1685850
  26.4179340  70.6485850   3.7114430  25.7244500  70.6463140   3.0516710
  27.1602200  70.2245170   3.2808600  25.9829270  72.2748560   7.7862920
  26.4386220  71.4937940   8.1001540  26.3221790  72.9855380   8.3304100
  30.7306080  61.2047410  18.1187360  30.1150350  61.7127080  17.5902820
  30.4102500  60.3045740  18.0613300  13.7331820  68.0465020  14.9453660
  13.8962860  67.5770380  14.1273030  14.1984270  67.5388580  15.6102500
  18.5050590  57.1770780   9.9814230  18.0618740  57.9580320   9.6498750
  19.0635580  57.5000670  10.6885170  22.7920400  60.0439300  15.5849550
  22.3299770  60.2522320  16.3969490  22.3898510  59.2298650  15.2820220
  27.7924910  61.2648250  16.7146210  26.9418500  60.9654000  17.0355280
  27.6326700  61.5090260  15.8030030  24.8874620  62.7650000  18.8145000
  25.2128030  61.9313750  18.4747230  25.6754950  63.2878520  18.9623330
  21.6209410  56.7981480   4.8620060  20.9963590  56.7941350   5.5873370
  21.5339530  55.9312440   4.4656030  20.5426490  57.7218110  11.8403830
  20.8398820  58.6280940  11.7595850  21.0912050  57.2336890  11.2263400
  18.2964810  62.3004350   7.7095480  18.0705730  62.0841520   8.6142100
  17.5157340  62.7332810   7.3641450  25.5262570  62.3067720   6.3086130
  24.9271460  63.0303520   6.1249750  26.0742180  62.2444500   5.5262580
  20.7364020  63.1989930  18.3755750  20.6407620  62.2584660  18.2256150
  21.5796000  63.4205000  17.9803820  24.1327440  60.9431260   8.3389410
  24.5257010  61.2603460   7.5258100  24.4944290  60.0643140   8.4533930
  15.8674560  59.6103600  16.5289530  15.4737950  60.4578810  16.7362310
  15.1792960  58.9729970  16.7198170  22.4419610  59.6938570  19.5986270
  21.7517930  59.5010770  20.2332360  23.1851910  59.9773210  20.1310570
  13.1691610  57.5332060  10.5619610  12.8804660  58.1034920  11.2744590
  13.9137370  57.0536510  10.9250840  24.7182580  63.5337010  12.4340190
  23.9863700  64.0423820  12.7830290  24.3206920  62.7166990  12.1328970
  21.1559970  60.2091210  10.8392680  21.1596030  59.7681160   9.9897220
  22.0511090  60.5308540  10.9464500  17.0062350  60.0917700   9.7986890
  16.6662400  60.5692930  10.5553940  16.2439670  59.6382820   9.4387990
  21.2180120  61.2103290   3.8299440  21.3392940  61.1689770   4.7785260
  20.8328630  62.0727440   3.6746170  25.1808490  58.9870690  11.8463130
  25.1981230  59.4379340  12.6904980  24.9324070  58.0876330  12.0596570
  20.2301620  63.5204430   3.2282740  19.6618520  63.0722680   2.6018650
  20.9390620  63.8797210   2.6947890  28.6079240  56.4002870  17.6849510
  28.9325010  55.6692530  18.2107490  28.6435750  56.0816510  16.7830500
  15.3070800  67.4216450  17.1049470  14.9225590  66.7810120  17.7032430
  15.6182990  68.1252570  17.6744200  21.4567940  64.2692990  12.5858090
  21.8238070  63.7951560  13.3319430  21.2673000  65.1434560  12.9266430
  14.3208430  59.0136680   8.7151560  14.0355350  58.6492350   9.5530180
  14.2587290  58.2817140   8.1014700  19.2467310  63.3101630  14.9042300
  18.9424380  64.1893610  15.1292660  20.2013770  63.3701420  14.9399740
  17.7749100  67.5162620   5.5009150  17.0011360  66.9760240   5.3407870
  18.5043730  66.9969230   5.1626910  28.5337080  66.5127980  11.2935540
  29.2536200  67.0083270  10.9031650  28.3318900  65.8345870  10.6489410
  23.9947020  57.9065940   5.4364930  23.1811630  57.4079110   5.3610240
  23.8008970  58.7464190   5.0201280  23.9155880  66.5837040  17.1804540
  23.8493190  65.6632710  16.9262130  23.2861020  66.6812480  17.8949180
  26.7095410  62.2785590   3.7327090  27.5975030  62.5902820   3.5578430
  26.6800500  61.4057840   3.3407670  17.8186500  67.1843000   9.1387960
  18.3365170  66.3811260   9.0844850  17.3670520  67.1222140   9.9804790
  22.7056000  68.4509280   4.4115260  23.0471700  69.1951510   3.9158580
  21.8768710  68.7640400   4.7740090  15.3031040  64.1504370  16.0513660
  14.9445980  64.8158220  16.6387000  15.0085600  63.3187920  16.4226280
  18.5044160  64.6088610  18.9353210  18.2044300  64.7545790  18.0381030
  19.2755400  64.0493900  18.8426600  23.8472610  69.4057610  16.9308340
  23.8617150  68.4738570  16.7127250  23.1397710  69.4917370  17.5698110
  28.9809680  63.5897430   3.2006950  28.8973400  64.0211650   2.3503390
  29.7003870  64.0495780   3.6333770  30.0583820  66.0464950  16.2776920
  29.3332010  66.6393730  16.0806310  30.5859280  66.0388490  15.4790290
  30.0096930  70.4439690   5.9289080  29.3673090  69.7895310   6.2032800
  29.6227590  70.8494780   5.1529750  25.5883410  67.7725120   9.7760770
  25.9407230  67.1753250   9.1162140  24.7045740  67.4469350   9.9469020
  21.6746690  68.5322810   7.1831180  22.3617820  69.0792020   7.5638770
  20.8879110  69.0763540   7.2180790  13.8139090  64.1495630   2.6748260
  14.6833940  64.4320430   2.9584180  13.3229410  64.9631500   2.5597070
  20.9773900  65.5368840   6.7956540  21.4336680  66.3474090   7.0216730
  20.6262110  65.2191980   7.6275030  23.2806510  71.0475180  14.0248840
  23.9248730  71.2534560  14.7022260  23.6435950  70.2863580  13.5719690
  16.8785680  55.8806490   7.2679060  16.7500310  55.8724390   8.2163980
  16.0547700  56.2189580   6.9170070  24.5538590  69.0507530  12.7426290
  25.1960820  68.3500690  12.8558460  25.0787940  69.8305970  12.5623180
  28.3994310  69.3356150   2.4665430  28.1731890  68.6186590   3.0590070
  28.0090510  69.0868590   1.6287180  26.3276210  69.8502430  15.9462350
  26.6632450  70.4369120  16.6240270  25.4076550  69.7195140  16.1760140
  14.1810340  73.3623010   3.2409890  14.5407980  73.9612350   2.5867160
  14.0402680  73.9082900   4.0144920  13.8779610  57.6397610  16.7285760
  13.1638130  57.8394530  17.3338370  14.2974650  56.8637180  17.1000560
  27.9810560  67.2528090   4.1279590  27.6932260  67.7140780   4.9157470
  28.7762730  66.7925860   4.3963810  14.1652200  71.6277870  17.7152290
  14.2743320  70.6872610  17.5747680  13.5132760  71.8932620  17.0666020
  22.1564790  69.8993760  19.1150410  21.8361660  69.1803000  19.6596100
  21.4823150  70.5748830  19.1886470  20.1978960  70.7454210   4.0583560
  20.1889060  71.4783900   3.4428070  19.2777320  70.4985790   4.1510520
  15.7985600  65.9669100   4.8030320  15.1913550  66.7068000   4.8125620
  16.2734950  66.0568460   3.9768520  25.3718390  60.1319920  14.4787210
  25.7399210  59.3115130  14.8066780  24.5116590  60.1921810  14.8942860
  28.7380420  59.0876860   5.2874770  28.1093580  59.1922530   4.5733000
  28.2432340  59.3073640   6.0768650  23.1838560  70.8082450   2.7208750
  23.2850540  70.6046440   1.7910730  22.2840300  70.5540730   2.9256530
  20.7064450  61.3662810   6.7032650  19.9980600  61.8349150   7.1446260
  20.9908930  60.7084820   7.3377840  22.3320380  62.7859510  14.7025180
  22.8305630  63.2605330  15.3677030  22.4743330  61.8623030  14.9095210
  24.7379880  58.0913470   8.1428440  24.6147660  58.1099600   7.1937950
  25.6864440  58.1392410   8.2626840  21.8256670  73.3268770   7.4156420
  22.0798170  73.2890160   6.4935790  20.8769150  73.2002100   7.4084670
  18.9099470  59.6747890   4.0783360  19.7590000  60.1118040   4.0123550
  18.5430740  59.9868150   4.9055420  29.5387240  59.0027470  15.5453570
  29.0360840  59.7432870  15.8847380  30.3543900  59.3911470  15.2290360
  27.8309250  64.2460650   8.9914930  26.8899390  64.2610880   9.1662620
  28.1453320  63.4596610   9.4375230  17.8090890  65.9280250   2.5518890
  18.5754160  65.8161610   3.1144320  17.8865580  65.2318220   1.8995660
  16.5037650  63.3605320   3.2351780  16.5841240  62.4132830   3.3469180
  17.3957400  63.6912200   3.3412440  29.8334830  71.4169500  10.6669190
  29.9582250  72.2400670  11.1393000  30.7000390  71.2060230  10.3193340
  17.3052360  73.5100710  10.3386320  18.0414840  72.9616170  10.6094890
  17.6893280  74.3756720  10.1992310  14.1897840  69.5774280   6.2127830
  13.2637620  69.8195420   6.2033240  14.6554270  70.4048540   6.0912580
  16.3110640  72.6946780  19.5271900  17.1123370  73.0158830  19.9407300
  15.7962460  72.3342360  20.2491810  20.4154670  72.6831020   2.1611890
  21.2083280  72.9719850   1.7093680  19.8959020  72.2523190   1.4824370
  25.1475270  68.8026650  19.4747310  24.5413430  68.8258250  18.7343060
  24.8429380  68.0709690  20.0114560  26.5775640  72.5306940  18.0856720
  27.5297390  72.4464960  18.0356960  26.4303860  73.1948650  18.7590510
  29.4684840  71.9101150   3.5848630  29.1826350  71.4966290   2.7702810
  29.2704390  72.8388860   3.4649150  14.0308450  65.1820240  18.4707950
  14.5347470  64.6027520  19.0424180  13.2915870  65.4660470  19.0084320
  21.0846390  66.5891230  18.0043470  20.3192060  67.1576230  17.9198140
  21.2662350  66.2967440  17.1111700  24.1734800  66.9654460   2.6296230
  23.6244900  67.4123760   3.2738970  24.7954060  66.4603710   3.1533900
  28.2269740  68.3196560  18.5618490  28.9679210  68.6572320  18.0585950
  27.4642420  68.4888620  18.0088260  16.0631530  63.3249830  19.3658020
  16.1036870  63.0263700  20.2743250  16.9177030  63.7257440  19.2065540
  19.8409920  65.9245380   4.5261530  20.2626340  65.7585250   5.3692920
  19.9660760  65.1145610   4.0316670  18.0037340  61.9041930  17.3332510
  17.4733800  61.4132880  16.7055850  18.6725410  62.3326130  16.7990440
  26.9015400  66.3711390  17.0973700  27.3156420  66.5256470  17.9464120
  25.9666400  66.4966610  17.2599480  27.3737570  63.7107550  19.1012850
  27.9558340  62.9559870  19.0133330  27.5499340  64.2414990  18.3244330
  18.4909640  58.8704300  17.4129800  18.3966510  58.2525050  16.6880670
  17.9107030  59.5970590  17.1859710  21.2571080  57.4277540  14.4457190
  20.8088380  57.4501800  13.6002740  20.6236280  57.0296560  15.0427490
  21.6630630  66.3231870  15.0669630  22.0818740  67.1664600  14.8945870
  20.7439260  66.4603910  14.8376410  23.9994530  64.0548050  16.4507470
  24.1190740  63.4589190  17.1902310  24.8588530  64.0917740  16.0308770
  26.3382430  64.6085240  15.0269980  25.8117650  65.1327860  14.4235120
  26.6813770  65.2412630  15.6579710  19.5138050  72.6284880  16.1827360
  18.9759140  73.3530940  15.8636060  19.7672010  72.1515220  15.3924700
  20.7663300  60.5969400  17.7083290  21.3562990  60.2885250  18.3961110
  19.9483540  60.1249150  17.8643190  25.5856730  60.2135210  17.9416310
  24.8972250  59.5516750  17.8766300  26.3062750  59.7673480  18.3864770
  26.2157130  56.8086840   4.0006570  26.4959420  55.9654740   4.3565990
  25.4422860  57.0409950   4.5145320  22.3700260  73.8636090  16.4414010
  22.2958960  74.7671230  16.7486380  21.4679100  73.5447990  16.4136080
  20.7536550  58.0413850   2.4453770  20.4058550  57.3637840   1.8656220
  20.9549320  57.5803360   3.2597160  22.9185590  73.0294600   4.0640370
  23.8136380  73.3679570   4.0859130  22.9503220  72.3074010   3.4364650
  16.5581750  68.4021650   2.2927370  16.9956620  68.9451320   2.9484950
  17.0429480  67.5768600   2.3023710  13.7727550  71.1910680   9.7447630
  14.1030560  70.3231740   9.5126270  14.2018550  71.3969200  10.5752590
  18.3689470  69.5219690   7.4049600  18.0685010  69.3984660   8.3053510
  18.2626960  68.6628280   6.9965330  14.2617760  72.0581270  12.4829260
  13.8248750  72.2382070  13.3153410  14.8295440  72.8155890  12.3410980
  29.8979940  71.5598270  16.7706570  29.2981930  71.6190830  16.0270490
  30.0273840  70.6203250  16.9003420  31.1381390  69.3016090   2.1076280
  30.3074350  69.3692740   2.5783510  31.3153220  70.1920210   1.8043140
  30.5937850  66.0463570   4.6110480  31.3556760  66.6160220   4.7170170
  30.6092220  65.4790770   5.3818790  14.0942190  64.5701500   8.8418140
  13.4391030  64.3013140   8.1977840  14.9320140  64.4605980   8.3920120
  31.5997820  66.9013670   9.4552410  31.9706650  66.1180990   9.0488380
  32.2399750  67.5902770   9.2769710  28.5831580  68.2850250  14.8682730
  27.7691420  68.7147410  15.1308520  28.9905780  68.8968660  14.2551780
  30.6457020  66.3397940   1.7683000  30.9205860  67.2476820   1.6402220
  30.4567760  66.2760470   2.7044990  27.0432630  59.3642790   3.0636630
  27.4617510  59.1773770   2.2233290  26.7368690  58.5121840   3.3739560
  30.5422360  64.2766930   6.7612430  30.1665960  63.5094860   6.3293720
  29.8125480  64.6589630   7.2487360  15.1318120  64.9554070  13.3821480
  15.4991160  64.8681470  14.2617500  14.5628940  64.1920620  13.2828340
  29.9321980  63.4238450  16.3951950  29.7008070  63.1951200  15.4949900
  30.1926530  64.3438000  16.3496840  14.6834120  61.8663160  17.2879900
  13.7890170  61.8329920  17.6273610  15.2231670  62.0649950  18.0531150
  28.3710050  58.6494880  19.1731650  29.2480230  58.6578280  19.5565650
  28.3830890  57.9125720  18.5624000  13.3080270  61.7800430   4.7843470
  12.4044350  62.0430630   4.6095130  13.7920890  62.0511600   4.0043430
  29.8173320  62.5024420  10.0619670  30.3410800  62.0087070   9.4309840
  30.4032740  62.6374780  10.8067240  29.9963040  62.5864290  13.5839220
  29.0465750  62.5527830  13.6984210  30.1776050  63.4964400  13.3488990
  15.8507480  60.8365970   2.6937850  16.5599180  60.4149190   2.2085130
  15.1347420  60.9041200   2.0621200  29.3073290  61.7597770   6.0012080
  29.8032410  61.5268640   6.7860960  29.1089360  60.9209610   5.5849720
  15.1873830  56.1411490  11.6363120  15.8350020  55.5908870  11.1958280
  15.6075670  56.3954640  12.4578930  30.7360450  60.3958720   8.5349760
  30.6259730  60.2414760   9.4732030  31.4968040  59.8679660   8.2925170
  29.0826170  56.3352850  14.9932760  29.7198390  56.9486990  15.3591950
  29.2301060  56.3713510  14.0481990  31.6250720  58.2266640   1.7755900
  32.5500030  58.0947820   1.5674190  31.6026510  58.3059460   2.7292350
  31.6989210  58.9977300   4.4012610  30.9040710  58.9322420   4.9305520
  31.9032490  59.9327940   4.3897960  28.6407630  73.0368850   8.3951000
  29.2366700  72.7153420   7.7185420  28.8985780  72.5640670   9.1864270
  14.9405830  56.2967160  14.3788440  14.5920650  56.7530980  15.1446620
  14.6093530  55.4024290  14.4610870  16.5470200  69.4686760  18.5441630
  16.5039830  69.0979670  19.4256090  16.6781210  70.4064330  18.6843450
  20.2476230  71.0246350  14.1451350  20.0067590  71.2920910  13.2581870
  21.1878870  71.1952080  14.2002210  22.4530650  57.4879040  17.9007860
  22.3919540  58.0800870  18.6503270  23.3931030  57.3805000  17.7558120
  25.0905210  57.1449100  17.5400150  25.7045620  57.4628390  16.8781230
  25.6354770  56.6597690  18.1596010  31.5080390  73.0440730  14.9461990
  31.0138670  73.4409600  14.2289120  30.8993680  72.4189940  15.3399270
  15.6126470  55.8243360  17.6539210  16.1609460  55.6431410  16.8905320
  15.6781780  55.0337470  18.1895520  16.3858230  72.4149010  15.6639410
  15.7918550  72.2833710  16.4029450  16.3782070  71.5787150  15.1981510
  25.8313250  55.7081240  13.8669440  24.9573090  56.0416350  13.6642370
  25.7224000  55.2354420  14.6921310  26.7385230  57.9152110  15.2511160
  26.4098590  57.1003870  14.8712890  27.6867530  57.8721920  15.1276850
  29.1919840  73.6864150  12.2248730  28.7322810  74.4379960  11.8506750
  28.5632300  72.9670620  12.1663530  16.0170460  69.7807390  14.6147450
  15.2904520  69.1612680  14.5473400  16.0779610  70.1748000  13.7445530
  19.6215560  71.9952390  11.3996860  20.1380580  71.3839750  10.8745120
  20.2712940  72.4981170  11.8907870  22.3611060  72.8860880  12.2265840
  22.6488870  72.6315180  11.3498850  22.8734280  72.3338240  12.8171410
  23.5788070  56.6251080  12.8062350  22.7959860  57.0996580  13.0859110
  23.2851000  55.7205910  12.6975530  28.1309140  57.3274180  10.8511440
  28.5717230  57.2719280  10.0033040  27.8616730  58.2432190  10.9221620
  29.9947710  56.9589420   8.8620260  29.9336110  56.0150640   8.7151280
  30.7739740  57.0669510   9.4073720  14.3000460  73.0981780   7.8244210
  14.1322500  72.4652460   8.5226100  13.4334970  73.3041180   7.4738400
  14.9228480  56.9298560   5.3276070  15.6807840  57.0427440   4.7540100
  14.4605650  57.7667760   5.2819500  21.4642290  59.0437830   8.3178380
  20.6516800  58.6694720   7.9774260  21.9683930  58.2882910   8.6199570
  25.9667270  55.7080280   9.5561450  26.5696640  56.2800490  10.0309970
  25.2260260  56.2719720   9.3335350  29.1101870  56.1101840   4.8301730
  29.3052500  57.0085290   5.0969160  28.3231740  55.8788920   5.3234680
  15.9063160  71.7915010   5.2694350  15.3810780  72.1723040   4.5656310
  15.8307740  72.4165780   5.9904060  17.2953630  57.4562610   3.8678040
  17.8246390  56.6692410   3.7385990  17.9281950  58.1353800   4.1013570
  19.4891470  57.1937750   6.9223430  18.8594210  56.4925060   7.0893560
  18.9496610  57.9541880   6.7056590  22.4283420  73.8076980  19.5934040
  23.3550730  73.5721250  19.6370000  22.4133850  74.6348980  19.1120070
  30.6628480  73.3502550   6.5908290  30.8380670  72.6640290   5.9469210
  29.9650050  73.8749600   6.1984960  19.6147030  56.4721730  19.3575920
  19.3331300  56.9755330  18.5936740  19.9966730  55.6743480  18.9918050
  18.5056130  73.7397390   4.1443600  19.2374950  73.4556670   3.5967490
  18.7649800  73.5010670   5.0342980  17.6670920  69.8562120   4.1489930
  17.0379800  70.3247220   4.6975760  17.7818750  69.0111340   4.5836120
  26.2162490  55.8875310  19.9356390  26.1027940  56.2069920  20.8307910
  27.0332230  56.2887820  19.6393670  28.9960980  73.0346840  19.4175080
  29.7886300  72.5396070  19.2101040  29.2894130  73.7136980  20.0250690
  25.1220640  45.1324290  65.3965090  25.0414690  44.2178900  65.1256800
  24.7085060  45.6291360  64.6904800  23.2538680  46.9103310  67.2774360
  22.4780780  46.4303750  67.5672930  23.9051610  46.2308960  67.1030520
  17.2704510  47.2223120  68.1550120  16.4389390  46.9671830  68.5546630
  17.8785490  47.2933890  68.8908040  27.2746110  51.3163500  66.0573490
  26.8127640  50.5450740  66.3860660  28.0871660  51.3429570  66.5625940
  17.2505770  51.2563210  68.3508140  17.5533810  50.3660950  68.1718360
  17.9949360  51.8133430  68.1230390  15.6796460  42.1825010  61.9392510
  14.7913160  42.5240980  61.8372390  15.9637650  41.9825330  61.0473340
  13.6429470  44.7830660  67.8232210  14.2145580  44.0152860  67.8235850
  13.6431010  45.0819420  66.9138820  23.5009420  53.6021510  65.6777480
  22.8820860  54.0579010  65.1071920  24.3561200  53.7572970  65.2767180
  22.6947670  49.5860500  67.2844520  22.6255950  48.6450440  67.1233650
  23.4567530  49.6761910  67.8567090  14.8854340  40.1915020  69.6101140
  14.7057180  39.2940770  69.8903900  14.4834420  40.7386890  70.2848090
  23.7252840  42.3930880  67.5113450  24.1017660  41.5202760  67.3987120
  23.6272350  42.7289580  66.6203890  17.8557850  40.7656510  62.9730890
  17.9624600  41.6660240  63.2799650  16.9450210  40.7174480  62.6825540
  27.5076960  39.8881320  64.4441790  28.3286580  39.3977890  64.4867270
  27.5411040  40.4778980  65.1973630  15.5041010  42.6875520  68.2183480
  16.1851120  42.9513890  68.8370880  15.1889060  41.8476390  68.5521490
  19.6965580  43.7342880  67.3056070  20.2043800  44.2323850  67.9461090
  20.2278820  42.9578080  67.1295430  31.7976510  41.9048070  71.0085420
  31.0928680  42.2929780  70.4900530  32.0634430  42.5998360  71.6106350
  17.9801680  38.3741440  71.5719490  17.9820120  38.8913830  70.7665390
  17.1505990  37.8971620  71.5489420  24.3672770  48.4860750  63.0709390
  23.7490040  48.9510200  62.5072110  24.8796020  49.1788230  63.4878900
  19.2304530  48.0136620  69.7492990  18.8973910  48.6405540  70.3914060
  19.4071210  48.5398500  68.9694660  27.7438440  41.8281700  67.2169330
  27.0394010  42.1166590  67.7972440  28.1050600  42.6381810  66.8568890
  17.6617010  40.0851400  69.5789940  18.0033820  40.9293450  69.2843810
  16.7232820  40.2335140  69.6955280  18.4423630  49.9817420  71.5642170
  19.0597630  50.6568500  71.2826620  17.5816750  50.3905400  71.4729670
  13.7355970  49.1717280  60.4449020  13.3583950  49.6604380  59.7133920
  13.9929040  49.8442560  61.0755550  29.3601220  51.4456830  69.4796810
  28.6764740  52.1155940  69.4713480  29.8995510  51.6437480  68.7141670
  30.8125360  41.2736490  67.6078540  29.8650270  41.3075470  67.7393970
  31.1375350  42.0875440  67.9927900  21.3444900  37.5733670  65.9034530
  21.6519880  37.0180560  65.1870030  20.4145600  37.7078130  65.7207520
  26.8959960  53.2900960  68.1941990  26.9087120  52.8863250  67.3264250
  26.3435180  54.0648250  68.0903420  28.1905380  50.0117180  63.2832160
  28.0801710  49.0691510  63.4081580  28.1873630  50.3732820  64.1694920
  26.2945400  48.1930800  69.5224600  26.7114190  47.9790910  68.6878060
  27.0185220  48.4503590  70.0933220  23.7325660  45.6382500  62.6394650
  22.8054940  45.5719880  62.8683120  23.8850480  46.5762630  62.5249890
  23.7194740  41.9099500  59.6361810  22.7798410  42.0713460  59.7214270
  24.0378000  42.6285180  59.0897800  30.2407500  46.5918020  69.6140840
  29.4126130  46.6611110  69.1390970  30.8357980  47.1772330  69.1456670
  27.7622950  47.2002800  63.1429900  27.1435370  46.8622350  62.4956200
  27.7447400  46.5562560  63.8509090  27.2049510  43.3787340  70.5595710
  26.7920690  44.2041050  70.8135700  26.4725460  42.7932380  70.3672070
  19.3382300  46.1647240  65.4214380  18.9339300  45.4524490  64.9260280
  19.4245420  45.8200480  66.3102420  19.8064000  49.8514800  67.5853590
  19.5092290  49.2460270  66.9061370  20.7563820  49.8892110  67.4742950
  18.0510920  42.9390450  69.2013420  18.6025510  43.0485790  68.4266670
  18.5654430  43.3128050  69.9168650  27.8949610  53.4246670  71.2476690
  27.4180170  54.2318860  71.0549300  27.2111400  52.7725000  71.4002900
  18.8982430  49.5896490  74.2361390  18.0010960  49.8136460  74.4834790
  18.9235300  49.7131430  73.2872790  25.9387650  46.4389610  60.1502650
  26.3780930  45.6012040  60.0040470  26.6516070  47.0719010  60.2366790
  17.7253650  46.4609810  72.8118760  17.5861420  47.3332610  73.1806160
  16.8435010  46.1182620  72.6666700  24.0483030  51.3785680  64.1183890
  24.4878940  52.1210010  63.7039280  23.9869920  51.6212250  65.0422850
  19.5234000  52.4031510  75.0203910  19.4949430  52.8074460  74.1532340
  19.3598970  51.4741870  74.8575510  29.5204790  37.6932420  58.4643690
  29.2077450  37.7859250  59.3642760  30.2817260  38.2713450  58.4141120
  16.0386930  45.0592220  62.9221030  15.9184530  45.7854310  62.3102300
  15.7287820  44.2895130  62.4448940  13.6772300  48.2307360  68.7289670
  13.7552720  48.3656130  67.7845390  14.2913980  47.5223250  68.9217790
  14.9219930  49.9307550  65.1395850  14.5148010  50.0722140  64.2849450
  15.8132940  49.6467710  64.9367060  30.8782070  50.3771460  73.4768090
  31.0045130  50.1383340  72.5585270  30.9203450  49.5456000  73.9490170
  24.7398810  54.0799460  72.0462900  25.2543480  53.9907470  72.8485330
  23.8967890  54.4259160  72.3390810  26.7153210  54.3654800  61.4746900
  26.5554350  54.0757740  62.3728730  26.5499920  53.5894930  60.9392130
  19.1941590  54.1453330  63.2518520  19.0184070  53.2288870  63.0386320
  18.3397330  54.5040620  63.4916320  26.4179340  51.8742360  60.0344900
  25.7244500  51.8719650  59.3747180  27.1602200  51.4501680  59.6039070
  25.9829270  53.5005070  64.1093390  26.4386220  52.7194450  64.4232010
  26.3221790  54.2111890  64.6534570  30.7306080  42.4303920  74.4417830
  30.1150350  42.9383590  73.9133290  30.4102500  41.5302250  74.3843770
  13.7331820  49.2721530  71.2684130  13.8962860  48.8026890  70.4503500
  14.1984270  48.7645090  71.9332970  18.5050590  38.4027290  66.3044700
  18.0618740  39.1836830  65.9729220  19.0635580  38.7257180  67.0115640
  22.7920400  41.2695810  71.9080020  22.3299770  41.4778830  72.7199960
  22.3898510  40.4555160  71.6050690  27.7924910  42.4904760  73.0376680
  26.9418500  42.1910510  73.3585750  27.6326700  42.7346770  72.1260500
  24.8874620  43.9906510  75.1375470  25.2128030  43.1570260  74.7977700
  25.6754950  44.5135030  75.2853800  21.6209410  38.0237990  61.1850530
  20.9963590  38.0197860  61.9103840  21.5339530  37.1568950  60.7886500
  20.5426490  38.9474620  68.1634300  20.8398820  39.8537450  68.0826320
  21.0912050  38.4593400  67.5493870  18.2964810  43.5260860  64.0325950
  18.0705730  43.3098030  64.9372570  17.5157340  43.9589320  63.6871920
  25.5262570  43.5324230  62.6316600  24.9271460  44.2560030  62.4480220
  26.0742180  43.4701010  61.8493050  20.7364020  44.4246440  74.6986220
  20.6407620  43.4841170  74.5486620  21.5796000  44.6461510  74.3034290
  24.1327440  42.1687770  64.6619880  24.5257010  42.4859970  63.8488570
  24.4944290  41.2899650  64.7764400  15.8674560  40.8360110  72.8520000
  15.4737950  41.6835320  73.0592780  15.1792960  40.1986480  73.0428640
  13.1691610  38.7588570  66.8850080  12.8804660  39.3291430  67.5975060
  13.9137370  38.2793020  67.2481310  13.3561840  42.7008690  58.0952800
  13.2736510  43.6439450  58.2367790  13.0044900  42.5583600  57.2165150
  24.7182580  44.7593520  68.7570660  23.9863700  45.2680330  69.1060760
  24.3206920  43.9423500  68.4559440  21.1559970  41.4347720  67.1623150
  21.1596030  40.9937670  66.3127690  22.0511090  41.7565050  67.2694970
  17.0062350  41.3174210  66.1217360  16.6662400  41.7949440  66.8784410
  16.2439670  40.8639330  65.7618460  21.2180120  42.4359800  60.1529910
  21.3392940  42.3946280  61.1015730  20.8328630  43.2983950  59.9976640
  25.1808490  40.2127200  68.1693600  25.1981230  40.6635850  69.0135450
  24.9324070  39.3132840  68.3827040  20.2301620  44.7460940  59.5513210
  19.6618520  44.2979190  58.9249120  20.9390620  45.1053720  59.0178360
  28.6079240  37.6259380  74.0079980  28.9325010  36.8949040  74.5337960
  28.6435750  37.3073020  73.1060970  15.3070800  48.6472960  73.4279940
  14.9225590  48.0066630  74.0262900  15.6182990  49.3509080  73.9974670
  21.4567940  45.4949500  68.9088560  21.8238070  45.0208070  69.6549900
  21.2673000  46.3691070  69.2496900  14.3208430  40.2393190  65.0382030
  14.0355350  39.8748860  65.8760650  14.2587290  39.5073650  64.4245170
  19.2467310  44.5358140  71.2272770  18.9424380  45.4150120  71.4523130
  20.2013770  44.5957930  71.2630210  17.7749100  48.7419130  61.8239620
  17.0011360  48.2016750  61.6638340  18.5043730  48.2225740  61.4857380
  28.5337080  47.7384490  67.6166010  29.2536200  48.2339780  67.2262120
  28.3318900  47.0602380  66.9719880  23.9947020  39.1322450  61.7595400
  23.1811630  38.6335620  61.6840710  23.8008970  39.9720700  61.3431750
  23.9155880  47.8093550  73.5035010  23.8493190  46.8889220  73.2492600
  23.2861020  47.9068990  74.2179650  26.7095410  43.5042100  60.0557560
  27.5975030  43.8159330  59.8808900  26.6800500  42.6314350  59.6638140
  17.8186500  48.4099510  65.4618430  18.3365170  47.6067770  65.4075320
  17.3670520  48.3478650  66.3035260  22.7056000  49.6765790  60.7345730
  23.0471700  50.4208020  60.2389050  21.8768710  49.9896910  61.0970560
  15.3031040  45.3760880  72.3744130  14.9445980  46.0414730  72.9617470
  15.0085600  44.5444430  72.7456750  18.5044160  45.8345120  75.2583680
  18.2044300  45.9802300  74.3611500  19.2755400  45.2750410  75.1657070
  23.8472610  50.6314120  73.2538810  23.8617150  49.6995080  73.0357720
  23.1397710  50.7173880  73.8928580  28.9809680  44.8153940  59.5237420
  28.8973400  45.2468160  58.6733860  29.7003870  45.2752290  59.9564240
  30.0583820  47.2721460  72.6007390  29.3332010  47.8650240  72.4036780
  30.5859280  47.2645000  71.8020760  30.0096930  51.6696200  62.2519550
  29.3673090  51.0151820  62.5263270  29.6227590  52.0751290  61.4760220
  25.5883410  48.9981630  66.0991240  25.9407230  48.4009760  65.4392610
  24.7045740  48.6725860  66.2699490  21.6746690  49.7579320  63.5061650
  22.3617820  50.3048530  63.8869240  20.8879110  50.3020050  63.5411260
  13.8139090  45.3752140  58.9978730  14.6833940  45.6576940  59.2814650
  13.3229410  46.1888010  58.8827540  20.9773900  46.7625350  63.1187010
  21.4336680  47.5730600  63.3447200  20.6262110  46.4448490  63.9505500
  23.2806510  52.2731690  70.3479310  23.9248730  52.4791070  71.0252730
  23.6435950  51.5120090  69.8950160  16.8785680  37.1063000  63.5909530
  16.7500310  37.0980900  64.5394450  16.0547700  37.4446090  63.2400540
  24.5538590  50.2764040  69.0656760  25.1960820  49.5757200  69.1788930
  25.0787940  51.0562480  68.8853650  28.3994310  50.5612660  58.7895900
  28.1731890  49.8443100  59.3820540  28.0090510  50.3125100  57.9517650
  26.3276210  51.0758940  72.2692820  26.6632450  51.6625630  72.9470740
  25.4076550  50.9451650  72.4990610  14.1810340  54.5879520  59.5640360
  14.5407980  55.1868860  58.9097630  14.0402680  55.1339410  60.3375390
  13.8779610  38.8654120  73.0516230  13.1638130  39.0651040  73.6568840
  14.2974650  38.0893690  73.4231030  27.9810560  48.4784600  60.4510060
  27.6932260  48.9397290  61.2387940  28.7762730  48.0182370  60.7194280
  14.1652200  52.8534380  74.0382760  14.2743320  51.9129120  73.8978150
  13.5132760  53.1189130  73.3896490  22.1564790  51.1250270  75.4380880
  21.8361660  50.4059510  75.9826570  21.4823150  51.8005340  75.5116940
  20.1978960  51.9710720  60.3814030  20.1889060  52.7040410  59.7658540
  19.2777320  51.7242300  60.4740990  15.7985600  47.1925610  61.1260790
  15.1913550  47.9324510  61.1356090  16.2734950  47.2824970  60.2998990
  25.3718390  41.3576430  70.8017680  25.7399210  40.5371640  71.1297250
  24.5116590  41.4178320  71.2173330  28.7380420  40.3133370  61.6105240
  28.1093580  40.4179040  60.8963470  28.2432340  40.5330150  62.3999120
  23.1838560  52.0338960  59.0439220  23.2850540  51.8302950  58.1141200
  22.2840300  51.7797240  59.2487000  20.7064450  42.5919320  63.0263120
  19.9980600  43.0605660  63.4676730  20.9908930  41.9341330  63.6608310
  22.3320380  44.0116020  71.0255650  22.8305630  44.4861840  71.6907500
  22.4743330  43.0879540  71.2325680  24.7379880  39.3169980  64.4658910
  24.6147660  39.3356110  63.5168420  25.6864440  39.3648920  64.5857310
  21.8256670  54.5525280  63.7386890  22.0798170  54.5146670  62.8166260
  20.8769150  54.4258610  63.7315140  18.9099470  40.9004400  60.4013830
  19.7590000  41.3374550  60.3354020  18.5430740  41.2124660  61.2285890
  29.5387240  40.2283980  71.8684040  29.0360840  40.9689380  72.2077850
  30.3543900  40.6167980  71.5520830  27.8309250  45.4717160  65.3145400
  26.8899390  45.4867390  65.4893090  28.1453320  44.6853120  65.7605700
  17.8090890  47.1536760  58.8749360  18.5754160  47.0418120  59.4374790
  17.8865580  46.4574730  58.2226130  16.5037650  44.5861830  59.5582250
  16.5841240  43.6389340  59.6699650  17.3957400  44.9168710  59.6642910
  29.8334830  52.6426010  66.9899660  29.9582250  53.4657180  67.4623470
  30.7000390  52.4316740  66.6423810  17.3052360  54.7357220  66.6616790
  18.0414840  54.1872680  66.9325360  17.6893280  55.6013230  66.5222780
  14.1897840  50.8030790  62.5358300  13.2637620  51.0451930  62.5263710
  14.6554270  51.6305050  62.4143050  20.4154670  53.9087530  58.4842360
  21.2083280  54.1976360  58.0324150  19.8959020  53.4779700  57.8054840
  26.5775640  53.7563450  74.4087190  27.5297390  53.6721470  74.3587430
  26.4303860  54.4205160  75.0820980  29.4684840  53.1357660  59.9079100
  29.1826350  52.7222800  59.0933280  29.2704390  54.0645370  59.7879620
  14.0308450  46.4076750  74.7938420  14.5347470  45.8284030  75.3654650
  13.2915870  46.6916980  75.3314790  20.9332070  49.1290940  58.3484710
  20.8282710  48.5143290  59.0746090  20.7656290  48.6056830  57.5647720
  21.0846390  47.8147740  74.3273940  20.3192060  48.3832740  74.2428610
  21.2662350  47.5223950  73.4342170  24.1734800  48.1910970  58.9526700
  23.6244900  48.6380270  59.5969440  24.7954060  47.6860220  59.4764370
  28.2269740  49.5453070  74.8848960  28.9679210  49.8828830  74.3816420
  27.4642420  49.7145130  74.3318730  19.8409920  47.1501890  60.8492000
  20.2626340  46.9841760  61.6923390  19.9660760  46.3402120  60.3547140
  18.0037340  43.1298440  73.6562980  17.4733800  42.6389390  73.0286320
  18.6725410  43.5582640  73.1220910  22.3537560  46.1739500  58.0969100
  22.8743220  45.4588520  57.7310250  23.0005960  46.8125370  58.3969610
  26.9015400  47.5967900  73.4204170  27.3156420  47.7512980  74.2694590
  25.9666400  47.7223120  73.5829950  27.3737570  44.9364060  75.4243320
  27.9558340  44.1816380  75.3363800  27.5499340  45.4671500  74.6474800
  18.4909640  40.0960810  73.7360270  18.3966510  39.4781560  73.0111140
  17.9107030  40.8227100  73.5090180  21.2571080  38.6534050  70.7687660
  20.8088380  38.6758310  69.9233210  20.6236280  38.2553070  71.3657960
  21.6630630  47.5488380  71.3900100  22.0818740  48.3921110  71.2176340
  20.7439260  47.6860420  71.1606880  23.9994530  45.2804560  72.7737940
  24.1190740  44.6845700  73.5132780  24.8588530  45.3174250  72.3539240
  26.3382430  45.8341750  71.3500450  25.8117650  46.3584370  70.7465590
  26.6813770  46.4669140  71.9810180  18.7368820  43.2235120  57.7950160
  18.5357880  42.3602480  58.1563500  18.5660870  43.1368480  56.8571760
  19.5138050  53.8541390  72.5057830  18.9759140  54.5787450  72.1866530
  19.7672010  53.3771730  71.7155170  20.7663300  41.8225910  74.0313760
  21.3562990  41.5141760  74.7191580  19.9483540  41.3505660  74.1873660
  25.5856730  41.4391720  74.2646780  24.8972250  40.7773260  74.1996770
  26.3062750  40.9929990  74.7095240  26.2157130  38.0343350  60.3237040
  26.4959420  37.1911250  60.6796460  25.4422860  38.2666460  60.8375790
  17.5351620  40.3235740  57.7828040  17.8377520  40.3303170  56.8747190
  18.2746210  39.9733600  58.2795700  22.3700260  55.0892600  72.7644480
  22.2958960  55.9927740  73.0716850  21.4679100  54.7704500  72.7366550
  20.7536550  39.2670360  58.7684240  20.4058550  38.5894350  58.1886690
  20.9549320  38.8059870  59.5827630  22.9185590  54.2551110  60.3870840
  23.8136380  54.5936080  60.4089600  22.9503220  53.5330520  59.7595120
  16.5581750  49.6278160  58.6157840  16.9956620  50.1707830  59.2715420
  17.0429480  48.8025110  58.6254180  13.7727550  52.4167190  66.0678100
  14.1030560  51.5488250  65.8356740  14.2018550  52.6225710  66.8983060
  18.3689470  50.7476200  63.7280070  18.0685010  50.6241170  64.6283980
  18.2626960  49.8884790  63.3195800  14.2617760  53.2837780  68.8059730
  13.8248750  53.4638580  69.6383880  14.8295440  54.0412400  68.6641450
  29.8979940  52.7854780  73.0937040  29.2981930  52.8447340  72.3500960
  30.0273840  51.8459760  73.2233890  31.1381390  50.5272600  58.4306750
  30.3074350  50.5949250  58.9013980  31.3153220  51.4176720  58.1273610
  30.5937850  47.2720080  60.9340950  31.3556760  47.8416730  61.0400640
  30.6092220  46.7047280  61.7049260  14.0942190  45.7958010  65.1648610
  13.4391030  45.5269650  64.5208310  14.9320140  45.6862490  64.7150590
  31.5997820  48.1270180  65.7782880  31.9706650  47.3437500  65.3718850
  32.2399750  48.8159280  65.6000180  28.5831580  49.5106760  71.1913200
  27.7691420  49.9403920  71.4538990  28.9905780  50.1225170  70.5782250
  30.6457020  47.5654450  58.0913470  30.9205860  48.4733330  57.9632690
  30.4567760  47.5016980  59.0275460  27.0432630  40.5899300  59.3867100
  27.4617510  40.4030280  58.5463760  26.7368690  39.7378350  59.6970030
  30.5422360  45.5023440  63.0842900  30.1665960  44.7351370  62.6524190
  29.8125480  45.8846140  63.5717830  15.1318120  46.1810580  69.7051950
  15.4991160  46.0937980  70.5847970  14.5628940  45.4177130  69.6058810
  29.9321980  44.6494960  72.7182420  29.7008070  44.4207710  71.8180370
  30.1926530  45.5694510  72.6727310  14.6834120  43.0919670  73.6110370
  13.7890170  43.0586430  73.9504080  15.2231670  43.2906460  74.3761620
  28.3710050  39.8751390  75.4962120  29.2480230  39.8834790  75.8796120
  28.3830890  39.1382230  74.8854470  13.3080270  43.0056940  61.1073940
  12.4044350  43.2687140  60.9325600  13.7920890  43.2768110  60.3273900
  29.8173320  43.7280930  66.3850140  30.3410800  43.2343580  65.7540310
  30.4032740  43.8631290  67.1297710  29.9963040  43.8120800  69.9069690
  29.0465750  43.7784340  70.0214680  30.1776050  44.7220910  69.6719460
  15.8507480  42.0622480  59.0168320  16.5599180  41.6405700  58.5315600
  15.1347420  42.1297710  58.3851670  15.4981640  38.1161810  58.0570970
  16.2209770  38.6570750  58.3752190  15.7706160  37.8425230  57.1812510
  29.3073290  42.9854280  62.3242550  29.8032410  42.7525150  63.1091430
  29.1089360  42.1466120  61.9080190  15.1873830  37.3668000  67.9593590
  15.8350020  36.8165380  67.5188750  15.6075670  37.6211150  68.7809400
  30.7360450  41.6215230  64.8580230  30.6259730  41.4671270  65.7962500
  31.4968040  41.0936170  64.6155640  29.0826170  37.5609360  71.3163230
  29.7198390  38.1743500  71.6822420  29.2301060  37.5970020  70.3712460
  31.6250720  39.4523150  58.0986370  32.5500030  39.3204330  57.8904660
  31.6026510  39.5315970  59.0522820  31.6989210  40.2233810  60.7243080
  30.9040710  40.1578930  61.2535990  31.9032490  41.1584450  60.7128430
  28.6407630  54.2625360  64.7181470  29.2366700  53.9409930  64.0415890
  28.8985780  53.7897180  65.5094740  14.9405830  37.5223670  70.7018910
  14.5920650  37.9787490  71.4677090  14.6093530  36.6280800  70.7841340
  16.5470200  50.6943270  74.8672100  16.5039830  50.3236180  75.7486560
  16.6781210  51.6320840  75.0073920  20.2476230  52.2502860  70.4681820
  20.0067590  52.5177420  69.5812340  21.1878870  52.4208590  70.5232680
  22.4530650  38.7135550  74.2238330  22.3919540  39.3057380  74.9733740
  23.3931030  38.6061510  74.0788590  25.0905210  38.3705610  73.8630620
  25.7045620  38.6884900  73.2011700  25.6354770  37.8854200  74.4826480
  31.5080390  54.2697240  71.2692460  31.0138670  54.6666110  70.5519590
  30.8993680  53.6446450  71.6629740  15.6126470  37.0499870  73.9769680
  16.1609460  36.8687920  73.2135790  15.6781780  36.2593980  74.5125990
  16.3858230  53.6405520  71.9869880  15.7918550  53.5090220  72.7259920
  16.3782070  52.8043660  71.5211980  25.8313250  36.9337750  70.1899910
  24.9573090  37.2672860  69.9872840  25.7224000  36.4610930  71.0151780
  26.7385230  39.1408620  71.5741630  26.4098590  38.3260380  71.1943360
  27.6867530  39.0978430  71.4507320  29.1919840  54.9120660  68.5479200
  28.7322810  55.6636470  68.1737220  28.5632300  54.1927130  68.4894000
  16.0170460  51.0063900  70.9377920  15.2904520  50.3869190  70.8703870
  16.0779610  51.4004510  70.0676000  19.6215560  53.2208900  67.7227330
  20.1380580  52.6096260  67.1975590  20.2712940  53.7237680  68.2138340
  22.3611060  54.1117390  68.5496310  22.6488870  53.8571690  67.6729320
  22.8734280  53.5594750  69.1401880  23.5788070  37.8507590  69.1292820
  22.7959860  38.3253090  69.4089580  23.2851000  36.9462420  69.0206000
  28.1309140  38.5530690  67.1741910  28.5717230  38.4975790  66.3263510
  27.8616730  39.4688700  67.2452090  29.9947710  38.1845930  65.1850730
  29.9336110  37.2407150  65.0381750  30.7739740  38.2926020  65.7304190
  14.3000460  54.3238290  64.1474680  14.1322500  53.6908970  64.8456570
  13.4334970  54.5297690  63.7968870  14.9228480  38.1555070  61.6506540
  15.6807840  38.2683950  61.0770570  14.4605650  38.9924270  61.6049970
  21.4642290  40.2694340  64.6408850  20.6516800  39.8951230  64.3004730
  21.9683930  39.5139420  64.9430040  25.9667270  36.9336790  65.8791920
  26.5696640  37.5057000  66.3540440  25.2260260  37.4976230  65.6565820
  29.1101870  37.3358350  61.1532200  29.3052500  38.2341800  61.4199630
  28.3231740  37.1045430  61.6465150  15.9063160  53.0171520  61.5924820
  15.3810780  53.3979550  60.8886780  15.8307740  53.6422290  62.3134530
  17.2953630  38.6819120  60.1908510  17.8246390  37.8948920  60.0616460
  17.9281950  39.3610310  60.4244040  19.4891470  38.4194260  63.2453900
  18.8594210  37.7181570  63.4124030  18.9496610  39.1798390  63.0287060
  22.4283420  55.0333490  75.9164510  23.3550730  54.7977760  75.9600470
  22.4133850  55.8605490  75.4350540  30.6628480  54.5759060  62.9138760
  30.8380670  53.8896800  62.2699680  29.9650050  55.1006110  62.5215430
  19.6147030  37.6978240  75.6806390  19.3331300  38.2011840  74.9167210
  19.9966730  36.8999990  75.3148520  18.5056130  54.9653900  60.4674070
  19.2374950  54.6813180  59.9197960  18.7649800  54.7267180  61.3573450
  17.6670920  51.0818630  60.4720400  17.0379800  51.5503730  61.0206230
  17.7818750  50.2367850  60.9066590  15.6796460  42.1825010  43.1649020
  14.7913160  42.5240980  43.0628900  15.9637650  41.9825330  42.2729850
  13.6429470  44.7830660  49.0488720  14.2145580  44.0152860  49.0492360
  13.6431010  45.0819420  48.1395330  14.8854340  40.1915020  50.8357650
  14.7057180  39.2940770  51.1160410  14.4834420  40.7386890  51.5104600
  17.8557850  40.7656510  44.1987400  17.9624600  41.6660240  44.5056160
  16.9450210  40.7174480  43.9082050  15.5041010  42.6875520  49.4439990
  16.1851120  42.9513890  50.0627390  15.1889060  41.8476390  49.7778000
  19.6965580  43.7342880  48.5312580  20.2043800  44.2323850  49.1717600
  20.2278820  42.9578080  48.3551940  31.7976510  41.9048070  52.2341930
  31.0928680  42.2929780  51.7157040  32.0634430  42.5998360  52.8362860
  17.9801680  38.3741440  52.7976000  17.9820120  38.8913830  51.9921900
  17.1505990  37.8971620  52.7745930  17.6617010  40.0851400  50.8046450
  18.0033820  40.9293450  50.5100320  16.7232820  40.2335140  50.9211790
  13.7355970  49.1717280  41.6705530  13.3583950  49.6604380  40.9390430
  13.9929040  49.8442560  42.3012060  21.3444900  37.5733670  47.1291040
  21.6519880  37.0180560  46.4126540  20.4145600  37.7078130  46.9464030
  23.7194740  41.9099500  40.8618320  22.7798410  42.0713460  40.9470780
  24.0378000  42.6285180  40.3154310  19.3382300  46.1647240  46.6470890
  18.9339300  45.4524490  46.1516790  19.4245420  45.8200480  47.5358930
  18.0510920  42.9390450  50.4269930  18.6025510  43.0485790  49.6523180
  18.5654430  43.3128050  51.1425160  27.8949610  53.4246670  52.4733200
  27.4180170  54.2318860  52.2805810  27.2111400  52.7725000  52.6259410
  18.8982430  49.5896490  55.4617900  18.0010960  49.8136460  55.7091300
  18.9235300  49.7131430  54.5129300  17.7253650  46.4609810  54.0375270
  17.5861420  47.3332610  54.4062670  16.8435010  46.1182620  53.8923210
  19.5234000  52.4031510  56.2460420  19.4949430  52.8074460  55.3788850
  19.3598970  51.4741870  56.0832020  16.0386930  45.0592220  44.1477540
  15.9184530  45.7854310  43.5358810  15.7287820  44.2895130  43.6705450
  31.4748820  53.1858610  57.5424590  31.9508540  53.6641500  58.2213670
  32.0955980  53.1176100  56.8170090  30.8782070  50.3771460  54.7024600
  31.0045130  50.1383340  53.7841780  30.9203450  49.5456000  55.1746680
  24.7398810  54.0799460  53.2719410  25.2543480  53.9907470  54.0741840
  23.8967890  54.4259160  53.5647320  26.4179340  51.8742360  41.2601410
  25.7244500  51.8719650  40.6003690  27.1602200  51.4501680  40.8295580
  30.7306080  42.4303920  55.6674340  30.1150350  42.9383590  55.1389800
  30.4102500  41.5302250  55.6100280  18.5050590  38.4027290  47.5301210
  18.0618740  39.1836830  47.1985730  19.0635580  38.7257180  48.2372150
  22.7920400  41.2695810  53.1336530  22.3299770  41.4778830  53.9456470
  22.3898510  40.4555160  52.8307200  24.8874620  43.9906510  56.3631980
  25.2128030  43.1570260  56.0234210  25.6754950  44.5135030  56.5110310
  21.6209410  38.0237990  42.4107040  20.9963590  38.0197860  43.1360350
  21.5339530  37.1568950  42.0143010  20.5426490  38.9474620  49.3890810
  20.8398820  39.8537450  49.3082830  21.0912050  38.4593400  48.7750380
  18.2964810  43.5260860  45.2582460  18.0705730  43.3098030  46.1629080
  17.5157340  43.9589320  44.9128430  20.7364020  44.4246440  55.9242730
  20.6407620  43.4841170  55.7743130  21.5796000  44.6461510  55.5290800
  15.8674560  40.8360110  54.0776510  15.4737950  41.6835320  54.2849290
  15.1792960  40.1986480  54.2685150  22.4419610  40.9195080  57.1473250
  21.7517930  40.7267280  57.7819340  23.1851910  41.2029720  57.6797550
  13.1691610  38.7588570  48.1106590  12.8804660  39.3291430  48.8231570
  13.9137370  38.2793020  48.4737820  13.3561840  42.7008690  39.3209310
  13.2736510  43.6439450  39.4624300  13.0044900  42.5583600  38.4421660
  21.1559970  41.4347720  48.3879660  21.1596030  40.9937670  47.5384200
  22.0511090  41.7565050  48.4951480  17.0062350  41.3174210  47.3473870
  16.6662400  41.7949440  48.1040920  16.2439670  40.8639330  46.9874970
  21.2180120  42.4359800  41.3786420  21.3392940  42.3946280  42.3272240
  20.8328630  43.2983950  41.2233150  20.2301620  44.7460940  40.7769720
  19.6618520  44.2979190  40.1505630  20.9390620  45.1053720  40.2434870
  28.6079240  37.6259380  55.2336490  28.9325010  36.8949040  55.7594470
  28.6435750  37.3073020  54.3317480  15.3070800  48.6472960  54.6536450
  14.9225590  48.0066630  55.2519410  15.6182990  49.3509080  55.2231180
  14.3208430  40.2393190  46.2638540  14.0355350  39.8748860  47.1017160
  14.2587290  39.5073650  45.6501680  19.2467310  44.5358140  52.4529280
  18.9424380  45.4150120  52.6779640  20.2013770  44.5957930  52.4886720
  17.7749100  48.7419130  43.0496130  17.0011360  48.2016750  42.8894850
  18.5043730  48.2225740  42.7113890  23.9947020  39.1322450  42.9851910
  23.1811630  38.6335620  42.9097220  23.8008970  39.9720700  42.5688260
  15.3031040  45.3760880  53.6000640  14.9445980  46.0414730  54.1873980
  15.0085600  44.5444430  53.9713260  18.5044160  45.8345120  56.4840190
  18.2044300  45.9802300  55.5868010  19.2755400  45.2750410  56.3913580
  30.0583820  47.2721460  53.8263900  29.3332010  47.8650240  53.6293290
  30.5859280  47.2645000  53.0277270  13.8139090  45.3752140  40.2235240
  14.6833940  45.6576940  40.5071160  13.3229410  46.1888010  40.1084050
  20.9773900  46.7625350  44.3443520  21.4336680  47.5730600  44.5703710
  20.6262110  46.4448490  45.1762010  16.8785680  37.1063000  44.8166040
  16.7500310  37.0980900  45.7650960  16.0547700  37.4446090  44.4657050
  26.3276210  51.0758940  53.4949330  26.6632450  51.6625630  54.1727250
  25.4076550  50.9451650  53.7247120  14.1810340  54.5879520  40.7896870
  14.5407980  55.1868860  40.1354140  14.0402680  55.1339410  41.5631900
  13.8779610  38.8654120  54.2772740  13.1638130  39.0651040  54.8825350
  14.2974650  38.0893690  54.6487540  14.1652200  52.8534380  55.2639270
  14.2743320  51.9129120  55.1234660  13.5132760  53.1189130  54.6153000
  22.1564790  51.1250270  56.6637390  21.8361660  50.4059510  57.2083080
  21.4823150  51.8005340  56.7373450  15.7985600  47.1925610  42.3517300
  15.1913550  47.9324510  42.3612600  16.2734950  47.2824970  41.5255500
  25.3718390  41.3576430  52.0274190  25.7399210  40.5371640  52.3553760
  24.5116590  41.4178320  52.4429840  23.1838560  52.0338960  40.2695730
  23.2850540  51.8302950  39.3397710  22.2840300  51.7797240  40.4743510
  20.7064450  42.5919320  44.2519630  19.9980600  43.0605660  44.6933240
  20.9908930  41.9341330  44.8864820  22.3320380  44.0116020  52.2512160
  22.8305630  44.4861840  52.9164010  22.4743330  43.0879540  52.4582190
  18.9099470  40.9004400  41.6270340  19.7590000  41.3374550  41.5610530
  18.5430740  41.2124660  42.4542400  17.8090890  47.1536760  40.1005870
  18.5754160  47.0418120  40.6631300  17.8865580  46.4574730  39.4482640
  16.5037650  44.5861830  40.7838760  16.5841240  43.6389340  40.8956160
  17.3957400  44.9168710  40.8899420  14.1897840  50.8030790  43.7614810
  13.2637620  51.0451930  43.7520220  14.6554270  51.6305050  43.6399560
  16.3110640  53.9203290  57.0758880  17.1123370  54.2415340  57.4894280
  15.7962460  53.5598870  57.7978790  20.4154670  53.9087530  39.7098870
  21.2083280  54.1976360  39.2580660  19.8959020  53.4779700  39.0311350
  25.1475270  50.0283160  57.0234290  24.5413430  50.0514760  56.2830040
  24.8429380  49.2966200  57.5601540  26.5775640  53.7563450  55.6343700
  27.5297390  53.6721470  55.5843940  26.4303860  54.4205160  56.3077490
  14.0308450  46.4076750  56.0194930  14.5347470  45.8284030  56.5911160
  13.2915870  46.6916980  56.5571300  20.9332070  49.1290940  39.5741220
  20.8282710  48.5143290  40.3002600  20.7656290  48.6056830  38.7904230
  21.0846390  47.8147740  55.5530450  20.3192060  48.3832740  55.4685120
  21.2662350  47.5223950  54.6598680  28.2269740  49.5453070  56.1105470
  28.9679210  49.8828830  55.6072930  27.4642420  49.7145130  55.5575240
  16.0631530  44.5506340  56.9145000  16.1036870  44.2520210  57.8230230
  16.9177030  44.9513950  56.7552520  19.8409920  47.1501890  42.0748510
  20.2626340  46.9841760  42.9179900  19.9660760  46.3402120  41.5803650
  18.0037340  43.1298440  54.8819490  17.4733800  42.6389390  54.2542830
  18.6725410  43.5582640  54.3477420  22.3537560  46.1739500  39.3225610
  22.8743220  45.4588520  38.9566760  23.0005960  46.8125370  39.6226120
  26.9015400  47.5967900  54.6460680  27.3156420  47.7512980  55.4951100
  25.9666400  47.7223120  54.8086460  27.3737570  44.9364060  56.6499830
  27.9558340  44.1816380  56.5620310  27.5499340  45.4671500  55.8731310
  18.4909640  40.0960810  54.9616780  18.3966510  39.4781560  54.2367650
  17.9107030  40.8227100  54.7346690  21.2571080  38.6534050  51.9944170
  20.8088380  38.6758310  51.1489720  20.6236280  38.2553070  52.5914470
  23.9994530  45.2804560  53.9994450  24.1190740  44.6845700  54.7389290
  24.8588530  45.3174250  53.5795750  18.7368820  43.2235120  39.0206670
  18.5357880  42.3602480  39.3820010  18.5660870  43.1368480  38.0828270
  19.5138050  53.8541390  53.7314340  18.9759140  54.5787450  53.4123040
  19.7672010  53.3771730  52.9411680  20.7663300  41.8225910  55.2570270
  21.3562990  41.5141760  55.9448090  19.9483540  41.3505660  55.4130170
  25.5856730  41.4391720  55.4903290  24.8972250  40.7773260  55.4253280
  26.3062750  40.9929990  55.9351750  17.5351620  40.3235740  39.0084550
  17.8377520  40.3303170  38.1003700  18.2746210  39.9733600  39.5052210
  22.3700260  55.0892600  53.9900990  22.2958960  55.9927740  54.2973360
  21.4679100  54.7704500  53.9623060  20.7536550  39.2670360  39.9940750
  20.4058550  38.5894350  39.4143200  20.9549320  38.8059870  40.8084140
  16.5581750  49.6278160  39.8414350  16.9956620  50.1707830  40.4971930
  17.0429480  48.8025110  39.8510690  29.8979940  52.7854780  54.3193550
  29.2981930  52.8447340  53.5757470  30.0273840  51.8459760  54.4490400
  14.0942190  45.7958010  46.3905120  13.4391030  45.5269650  45.7464820
  14.9320140  45.6862490  45.9407100  29.9321980  44.6494960  53.9438930
  29.7008070  44.4207710  53.0436880  30.1926530  45.5694510  53.8983820
  14.6834120  43.0919670  54.8366880  13.7890170  43.0586430  55.1760590
  15.2231670  43.2906460  55.6018130  28.3710050  39.8751390  56.7218630
  29.2480230  39.8834790  57.1052630  28.3830890  39.1382230  56.1110980
  13.3080270  43.0056940  42.3330450  12.4044350  43.2687140  42.1582110
  13.7920890  43.2768110  41.5530410  15.8507480  42.0622480  40.2424830
  16.5599180  41.6405700  39.7572110  15.1347420  42.1297710  39.6108180
  15.4981640  38.1161810  39.2827480  16.2209770  38.6570750  39.6008700
  15.7706160  37.8425230  38.4069020  15.1873830  37.3668000  49.1850100
  15.8350020  36.8165380  48.7445260  15.6075670  37.6211150  50.0065910
  29.0826170  37.5609360  52.5419740  29.7198390  38.1743500  52.9078930
  29.2301060  37.5970020  51.5968970  14.9405830  37.5223670  51.9275420
  14.5920650  37.9787490  52.6933600  14.6093530  36.6280800  52.0097850
  16.5470200  50.6943270  56.0928610  16.5039830  50.3236180  56.9743070
  16.6781210  51.6320840  56.2330430  22.4530650  38.7135550  55.4494840
  22.3919540  39.3057380  56.1990250  23.3931030  38.6061510  55.3045100
  25.0905210  38.3705610  55.0887130  25.7045620  38.6884900  54.4268210
  25.6354770  37.8854200  55.7082990  31.5080390  54.2697240  52.4948970
  31.0138670  54.6666110  51.7776100  30.8993680  53.6446450  52.8886250
  15.6126470  37.0499870  55.2026190  16.1609460  36.8687920  54.4392300
  15.6781780  36.2593980  55.7382500  25.8313250  36.9337750  51.4156420
  24.9573090  37.2672860  51.2129350  25.7224000  36.4610930  52.2408290
  26.7385230  39.1408620  52.7998140  26.4098590  38.3260380  52.4199870
  27.6867530  39.0978430  52.6763830  23.5788070  37.8507590  50.3549330
  22.7959860  38.3253090  50.6346090  23.2851000  36.9462420  50.2462510
  14.9228480  38.1555070  42.8763050  15.6807840  38.2683950  42.3027080
  14.4605650  38.9924270  42.8306480  21.4642290  40.2694340  45.8665360
  20.6516800  39.8951230  45.5261240  21.9683930  39.5139420  46.1686550
  17.2953630  38.6819120  41.4165020  17.8246390  37.8948920  41.2872970
  17.9281950  39.3610310  41.6500550  19.4891470  38.4194260  44.4710410
  18.8594210  37.7181570  44.6380540  18.9496610  39.1798390  44.2543570
  22.4283420  55.0333490  57.1421020  23.3550730  54.7977760  57.1856980
  22.4133850  55.8605490  56.6607050  19.6147030  37.6978240  56.9062900
  19.3331300  38.2011840  56.1423720  19.9966730  36.8999990  56.5405030
  17.6670920  51.0818630  41.6976910  17.0379800  51.5503730  42.2462740
  17.7818750  50.2367850  42.1323100  26.2162490  37.1131820  57.4843370
  26.1027940  37.4326430  58.3794890  27.0332230  37.5144330  57.1880650
  28.9960980  54.2603350  56.9662060  29.7886300  53.7652580  56.7588020
  29.2894130  54.9393490  57.5737670  25.1220640  45.1324290  27.8478110
  25.0414690  44.2178900  27.5769820  24.7085060  45.6291360  27.1417820
  23.2538680  46.9103310  29.7287380  22.4780780  46.4303750  30.0185950
  23.9051610  46.2308960  29.5543540  17.2704510  47.2223120  30.6063140
  16.4389390  46.9671830  31.0059650  17.8785490  47.2933890  31.3421060
  27.2746110  51.3163500  28.5086510  26.8127640  50.5450740  28.8373680
  28.0871660  51.3429570  29.0138960  17.2505770  51.2563210  30.8021160
  17.5533810  50.3660950  30.6231380  17.9949360  51.8133430  30.5743410
  15.6796460  42.1825010  24.3905530  14.7913160  42.5240980  24.2885410
  15.9637650  41.9825330  23.4986360  13.6429470  44.7830660  30.2745230
  14.2145580  44.0152860  30.2748870  13.6431010  45.0819420  29.3651840
  23.5009420  53.6021510  28.1290500  22.8820860  54.0579010  27.5584940
  24.3561200  53.7572970  27.7280200  22.6947670  49.5860500  29.7357540
  22.6255950  48.6450440  29.5746670  23.4567530  49.6761910  30.3080110
  14.8854340  40.1915020  32.0614160  14.7057180  39.2940770  32.3416920
  14.4834420  40.7386890  32.7361110  23.7252840  42.3930880  29.9626470
  24.1017660  41.5202760  29.8500140  23.6272350  42.7289580  29.0716910
  17.8557850  40.7656510  25.4243910  17.9624600  41.6660240  25.7312670
  16.9450210  40.7174480  25.1338560  27.5076960  39.8881320  26.8954810
  28.3286580  39.3977890  26.9380290  27.5411040  40.4778980  27.6486650
  15.5041010  42.6875520  30.6696500  16.1851120  42.9513890  31.2883900
  15.1889060  41.8476390  31.0034510  19.6965580  43.7342880  29.7569090
  20.2043800  44.2323850  30.3974110  20.2278820  42.9578080  29.5808450
  31.7976510  41.9048070  33.4598440  31.0928680  42.2929780  32.9413550
  32.0634430  42.5998360  34.0619370  17.9801680  38.3741440  34.0232510
  17.9820120  38.8913830  33.2178410  17.1505990  37.8971620  34.0002440
  24.3672770  48.4860750  25.5222410  23.7490040  48.9510200  24.9585130
  24.8796020  49.1788230  25.9391920  19.2304530  48.0136620  32.2006010
  18.8973910  48.6405540  32.8427080  19.4071210  48.5398500  31.4207680
  27.7438440  41.8281700  29.6682350  27.0394010  42.1166590  30.2485460
  28.1050600  42.6381810  29.3081910  17.6617010  40.0851400  32.0302960
  18.0033820  40.9293450  31.7356830  16.7232820  40.2335140  32.1468300
  18.4423630  49.9817420  34.0155190  19.0597630  50.6568500  33.7339640
  17.5816750  50.3905400  33.9242690  13.7355970  49.1717280  22.8962040
  13.3583950  49.6604380  22.1646940  13.9929040  49.8442560  23.5268570
  29.3601220  51.4456830  31.9309830  28.6764740  52.1155940  31.9226500
  29.8995510  51.6437480  31.1654690  30.8125360  41.2736490  30.0591560
  29.8650270  41.3075470  30.1906990  31.1375350  42.0875440  30.4440920
  21.3444900  37.5733670  28.3547550  21.6519880  37.0180560  27.6383050
  20.4145600  37.7078130  28.1720540  26.8959960  53.2900960  30.6455010
  26.9087120  52.8863250  29.7777270  26.3435180  54.0648250  30.5416440
  28.1905380  50.0117180  25.7345180  28.0801710  49.0691510  25.8594600
  28.1873630  50.3732820  26.6207940  26.2945400  48.1930800  31.9737620
  26.7114190  47.9790910  31.1391080  27.0185220  48.4503590  32.5446240
  23.7325660  45.6382500  25.0907670  22.8054940  45.5719880  25.3196140
  23.8850480  46.5762630  24.9762910  23.7194740  41.9099500  22.0874830
  22.7798410  42.0713460  22.1727290  24.0378000  42.6285180  21.5410820
  30.2407500  46.5918020  32.0653860  29.4126130  46.6611110  31.5903990
  30.8357980  47.1772330  31.5969690  27.7622950  47.2002800  25.5942920
  27.1435370  46.8622350  24.9469220  27.7447400  46.5562560  26.3022110
  27.2049510  43.3787340  33.0108730  26.7920690  44.2041050  33.2648720
  26.4725460  42.7932380  32.8185090  19.3382300  46.1647240  27.8727400
  18.9339300  45.4524490  27.3773300  19.4245420  45.8200480  28.7615440
  19.8064000  49.8514800  30.0366610  19.5092290  49.2460270  29.3574390
  20.7563820  49.8892110  29.9255970  18.0510920  42.9390450  31.6526440
  18.6025510  43.0485790  30.8779690  18.5654430  43.3128050  32.3681670
  27.8949610  53.4246670  33.6989710  27.4180170  54.2318860  33.5062320
  27.2111400  52.7725000  33.8515920  18.8982430  49.5896490  36.6874410
  18.0010960  49.8136460  36.9347810  18.9235300  49.7131430  35.7385810
  25.9387650  46.4389610  22.6015670  26.3780930  45.6012040  22.4553490
  26.6516070  47.0719010  22.6879810  17.7253650  46.4609810  35.2631780
  17.5861420  47.3332610  35.6319180  16.8435010  46.1182620  35.1179720
  24.0483030  51.3785680  26.5696910  24.4878940  52.1210010  26.1552300
  23.9869920  51.6212250  27.4935870  19.5234000  52.4031510  37.4716930
  19.4949430  52.8074460  36.6045360  19.3598970  51.4741870  37.3088530
  29.5204790  37.6932420  20.9156710  29.2077450  37.7859250  21.8155780
  30.2817260  38.2713450  20.8654140  16.0386930  45.0592220  25.3734050
  15.9184530  45.7854310  24.7615320  15.7287820  44.2895130  24.8961960
  13.6772300  48.2307360  31.1802690  13.7552720  48.3656130  30.2358410
  14.2913980  47.5223250  31.3730810  14.9219930  49.9307550  27.5908870
  14.5148010  50.0722140  26.7362470  15.8132940  49.6467710  27.3880080
  24.7398810  54.0799460  34.4975920  25.2543480  53.9907470  35.2998350
  23.8967890  54.4259160  34.7903830  26.7153210  54.3654800  23.9259920
  26.5554350  54.0757740  24.8241750  26.5499920  53.5894930  23.3905150
  19.1941590  54.1453330  25.7031540  19.0184070  53.2288870  25.4899340
  18.3397330  54.5040620  25.9429340  26.4179340  51.8742360  22.4857920
  25.7244500  51.8719650  21.8260200  27.1602200  51.4501680  22.0552090
  25.9829270  53.5005070  26.5606410  26.4386220  52.7194450  26.8745030
  26.3221790  54.2111890  27.1047590  30.7306080  42.4303920  36.8930850
  30.1150350  42.9383590  36.3646310  30.4102500  41.5302250  36.8356790
  13.7331820  49.2721530  33.7197150  13.8962860  48.8026890  32.9016520
  14.1984270  48.7645090  34.3845990  18.5050590  38.4027290  28.7557720
  18.0618740  39.1836830  28.4242240  19.0635580  38.7257180  29.4628660
  22.7920400  41.2695810  34.3593040  22.3299770  41.4778830  35.1712980
  22.3898510  40.4555160  34.0563710  27.7924910  42.4904760  35.4889700
  26.9418500  42.1910510  35.8098770  27.6326700  42.7346770  34.5773520
  24.8874620  43.9906510  37.5888490  25.2128030  43.1570260  37.2490720
  25.6754950  44.5135030  37.7366820  21.6209410  38.0237990  23.6363550
  20.9963590  38.0197860  24.3616860  21.5339530  37.1568950  23.2399520
  20.5426490  38.9474620  30.6147320  20.8398820  39.8537450  30.5339340
  21.0912050  38.4593400  30.0006890  18.2964810  43.5260860  26.4838970
  18.0705730  43.3098030  27.3885590  17.5157340  43.9589320  26.1384940
  25.5262570  43.5324230  25.0829620  24.9271460  44.2560030  24.8993240
  26.0742180  43.4701010  24.3006070  20.7364020  44.4246440  37.1499240
  20.6407620  43.4841170  36.9999640  21.5796000  44.6461510  36.7547310
  24.1327440  42.1687770  27.1132900  24.5257010  42.4859970  26.3001590
  24.4944290  41.2899650  27.2277420  15.8674560  40.8360110  35.3033020
  15.4737950  41.6835320  35.5105800  15.1792960  40.1986480  35.4941660
  22.4419610  40.9195080  38.3729760  21.7517930  40.7267280  39.0075850
  23.1851910  41.2029720  38.9054060  13.1691610  38.7588570  29.3363100
  12.8804660  39.3291430  30.0488080  13.9137370  38.2793020  29.6994330
  13.3561840  42.7008690  20.5465820  13.2736510  43.6439450  20.6880810
  13.0044900  42.5583600  19.6678170  24.7182580  44.7593520  31.2083680
  23.9863700  45.2680330  31.5573780  24.3206920  43.9423500  30.9072460
  21.1559970  41.4347720  29.6136170  21.1596030  40.9937670  28.7640710
  22.0511090  41.7565050  29.7207990  17.0062350  41.3174210  28.5730380
  16.6662400  41.7949440  29.3297430  16.2439670  40.8639330  28.2131480
  21.2180120  42.4359800  22.6042930  21.3392940  42.3946280  23.5528750
  20.8328630  43.2983950  22.4489660  25.1808490  40.2127200  30.6206620
  25.1981230  40.6635850  31.4648470  24.9324070  39.3132840  30.8340060
  20.2301620  44.7460940  22.0026230  19.6618520  44.2979190  21.3762140
  20.9390620  45.1053720  21.4691380  28.6079240  37.6259380  36.4593000
  28.9325010  36.8949040  36.9850980  28.6435750  37.3073020  35.5573990
  15.3070800  48.6472960  35.8792960  14.9225590  48.0066630  36.4775920
  15.6182990  49.3509080  36.4487690  21.4567940  45.4949500  31.3601580
  21.8238070  45.0208070  32.1062920  21.2673000  46.3691070  31.7009920
  14.3208430  40.2393190  27.4895050  14.0355350  39.8748860  28.3273670
  14.2587290  39.5073650  26.8758190  19.2467310  44.5358140  33.6785790
  18.9424380  45.4150120  33.9036150  20.2013770  44.5957930  33.7143230
  17.7749100  48.7419130  24.2752640  17.0011360  48.2016750  24.1151360
  18.5043730  48.2225740  23.9370400  28.5337080  47.7384490  30.0679030
  29.2536200  48.2339780  29.6775140  28.3318900  47.0602380  29.4232900
  23.9947020  39.1322450  24.2108420  23.1811630  38.6335620  24.1353730
  23.8008970  39.9720700  23.7944770  23.9155880  47.8093550  35.9548030
  23.8493190  46.8889220  35.7005620  23.2861020  47.9068990  36.6692670
  26.7095410  43.5042100  22.5070580  27.5975030  43.8159330  22.3321920
  26.6800500  42.6314350  22.1151160  17.8186500  48.4099510  27.9131450
  18.3365170  47.6067770  27.8588340  17.3670520  48.3478650  28.7548280
  22.7056000  49.6765790  23.1858750  23.0471700  50.4208020  22.6902070
  21.8768710  49.9896910  23.5483580  15.3031040  45.3760880  34.8257150
  14.9445980  46.0414730  35.4130490  15.0085600  44.5444430  35.1969770
  18.5044160  45.8345120  37.7096700  18.2044300  45.9802300  36.8124520
  19.2755400  45.2750410  37.6170090  23.8472610  50.6314120  35.7051830
  23.8617150  49.6995080  35.4870740  23.1397710  50.7173880  36.3441600
  28.9809680  44.8153940  21.9750440  28.8973400  45.2468160  21.1246880
  29.7003870  45.2752290  22.4077260  30.0583820  47.2721460  35.0520410
  29.3332010  47.8650240  34.8549800  30.5859280  47.2645000  34.2533780
  30.0096930  51.6696200  24.7032570  29.3673090  51.0151820  24.9776290
  29.6227590  52.0751290  23.9273240  25.5883410  48.9981630  28.5504260
  25.9407230  48.4009760  27.8905630  24.7045740  48.6725860  28.7212510
  21.6746690  49.7579320  25.9574670  22.3617820  50.3048530  26.3382260
  20.8879110  50.3020050  25.9924280  13.8139090  45.3752140  21.4491750
  14.6833940  45.6576940  21.7327670  13.3229410  46.1888010  21.3340560
  20.9773900  46.7625350  25.5700030  21.4336680  47.5730600  25.7960220
  20.6262110  46.4448490  26.4018520  23.2806510  52.2731690  32.7992330
  23.9248730  52.4791070  33.4765750  23.6435950  51.5120090  32.3463180
  16.8785680  37.1063000  26.0422550  16.7500310  37.0980900  26.9907470
  16.0547700  37.4446090  25.6913560  24.5538590  50.2764040  31.5169780
  25.1960820  49.5757200  31.6301950  25.0787940  51.0562480  31.3366670
  28.3994310  50.5612660  21.2408920  28.1731890  49.8443100  21.8333560
  28.0090510  50.3125100  20.4030670  26.3276210  51.0758940  34.7205840
  26.6632450  51.6625630  35.3983760  25.4076550  50.9451650  34.9503630
  14.1810340  54.5879520  22.0153380  14.5407980  55.1868860  21.3610650
  14.0402680  55.1339410  22.7888410  13.8779610  38.8654120  35.5029250
  13.1638130  39.0651040  36.1081860  14.2974650  38.0893690  35.8744050
  27.9810560  48.4784600  22.9023080  27.6932260  48.9397290  23.6900960
  28.7762730  48.0182370  23.1707300  14.1652200  52.8534380  36.4895780
  14.2743320  51.9129120  36.3491170  13.5132760  53.1189130  35.8409510
  22.1564790  51.1250270  37.8893900  21.8361660  50.4059510  38.4339590
  21.4823150  51.8005340  37.9629960  20.1978960  51.9710720  22.8327050
  20.1889060  52.7040410  22.2171560  19.2777320  51.7242300  22.9254010
  15.7985600  47.1925610  23.5773810  15.1913550  47.9324510  23.5869110
  16.2734950  47.2824970  22.7512010  25.3718390  41.3576430  33.2530700
  25.7399210  40.5371640  33.5810270  24.5116590  41.4178320  33.6686350
  28.7380420  40.3133370  24.0618260  28.1093580  40.4179040  23.3476490
  28.2432340  40.5330150  24.8512140  23.1838560  52.0338960  21.4952240
  23.2850540  51.8302950  20.5654220  22.2840300  51.7797240  21.7000020
  20.7064450  42.5919320  25.4776140  19.9980600  43.0605660  25.9189750
  20.9908930  41.9341330  26.1121330  22.3320380  44.0116020  33.4768670
  22.8305630  44.4861840  34.1420520  22.4743330  43.0879540  33.6838700
  24.7379880  39.3169980  26.9171930  24.6147660  39.3356110  25.9681440
  25.6864440  39.3648920  27.0370330  21.8256670  54.5525280  26.1899910
  22.0798170  54.5146670  25.2679280  20.8769150  54.4258610  26.1828160
  18.9099470  40.9004400  22.8526850  19.7590000  41.3374550  22.7867040
  18.5430740  41.2124660  23.6798910  29.5387240  40.2283980  34.3197060
  29.0360840  40.9689380  34.6590870  30.3543900  40.6167980  34.0033850
  27.8309250  45.4717160  27.7658420  26.8899390  45.4867390  27.9406110
  28.1453320  44.6853120  28.2118720  17.8090890  47.1536760  21.3262380
  18.5754160  47.0418120  21.8887810  17.8865580  46.4574730  20.6739150
  16.5037650  44.5861830  22.0095270  16.5841240  43.6389340  22.1212670
  17.3957400  44.9168710  22.1155930  29.8334830  52.6426010  29.4412680
  29.9582250  53.4657180  29.9136490  30.7000390  52.4316740  29.0936830
  17.3052360  54.7357220  29.1129810  18.0414840  54.1872680  29.3838380
  17.6893280  55.6013230  28.9735800  14.1897840  50.8030790  24.9871320
  13.2637620  51.0451930  24.9776730  14.6554270  51.6305050  24.8656070
  16.3110640  53.9203290  38.3015390  17.1123370  54.2415340  38.7150790
  15.7962460  53.5598870  39.0235300  20.4154670  53.9087530  20.9355380
  21.2083280  54.1976360  20.4837170  19.8959020  53.4779700  20.2567860
  25.1475270  50.0283160  38.2490800  24.5413430  50.0514760  37.5086550
  24.8429380  49.2966200  38.7858050  26.5775640  53.7563450  36.8600210
  27.5297390  53.6721470  36.8100450  26.4303860  54.4205160  37.5334000
  29.4684840  53.1357660  22.3592120  29.1826350  52.7222800  21.5446300
  29.2704390  54.0645370  22.2392640  14.0308450  46.4076750  37.2451440
  14.5347470  45.8284030  37.8167670  13.2915870  46.6916980  37.7827810
  20.9332070  49.1290940  20.7997730  20.8282710  48.5143290  21.5259110
  20.7656290  48.6056830  20.0160740  21.0846390  47.8147740  36.7786960
  20.3192060  48.3832740  36.6941630  21.2662350  47.5223950  35.8855190
  24.1734800  48.1910970  21.4039720  23.6244900  48.6380270  22.0482460
  24.7954060  47.6860220  21.9277390  28.2269740  49.5453070  37.3361980
  28.9679210  49.8828830  36.8329440  27.4642420  49.7145130  36.7831750
  16.0631530  44.5506340  38.1401510  16.1036870  44.2520210  39.0486740
  16.9177030  44.9513950  37.9809030  19.8409920  47.1501890  23.3005020
  20.2626340  46.9841760  24.1436410  19.9660760  46.3402120  22.8060160
  18.0037340  43.1298440  36.1076000  17.4733800  42.6389390  35.4799340
  18.6725410  43.5582640  35.5733930  22.3537560  46.1739500  20.5482120
  22.8743220  45.4588520  20.1823270  23.0005960  46.8125370  20.8482630
  26.9015400  47.5967900  35.8717190  27.3156420  47.7512980  36.7207610
  25.9666400  47.7223120  36.0342970  27.3737570  44.9364060  37.8756340
  27.9558340  44.1816380  37.7876820  27.5499340  45.4671500  37.0987820
  18.4909640  40.0960810  36.1873290  18.3966510  39.4781560  35.4624160
  17.9107030  40.8227100  35.9603200  21.2571080  38.6534050  33.2200680
  20.8088380  38.6758310  32.3746230  20.6236280  38.2553070  33.8170980
  21.6630630  47.5488380  33.8413120  22.0818740  48.3921110  33.6689360
  20.7439260  47.6860420  33.6119900  23.9994530  45.2804560  35.2250960
  24.1190740  44.6845700  35.9645800  24.8588530  45.3174250  34.8052260
  26.3382430  45.8341750  33.8013470  25.8117650  46.3584370  33.1978610
  26.6813770  46.4669140  34.4323200  18.7368820  43.2235120  20.2463180
  18.5357880  42.3602480  20.6076520  18.5660870  43.1368480  19.3084780
  19.5138050  53.8541390  34.9570850  18.9759140  54.5787450  34.6379550
  19.7672010  53.3771730  34.1668190  20.7663300  41.8225910  36.4826780
  21.3562990  41.5141760  37.1704600  19.9483540  41.3505660  36.6386680
  25.5856730  41.4391720  36.7159800  24.8972250  40.7773260  36.6509790
  26.3062750  40.9929990  37.1608260  26.2157130  38.0343350  22.7750060
  26.4959420  37.1911250  23.1309480  25.4422860  38.2666460  23.2888810
  17.5351620  40.3235740  20.2341060  17.8377520  40.3303170  19.3260210
  18.2746210  39.9733600  20.7308720  22.3700260  55.0892600  35.2157500
  22.2958960  55.9927740  35.5229870  21.4679100  54.7704500  35.1879570
  20.7536550  39.2670360  21.2197260  20.4058550  38.5894350  20.6399710
  20.9549320  38.8059870  22.0340650  22.9185590  54.2551110  22.8383860
  23.8136380  54.5936080  22.8602620  22.9503220  53.5330520  22.2108140
  16.5581750  49.6278160  21.0670860  16.9956620  50.1707830  21.7228440
  17.0429480  48.8025110  21.0767200  13.7727550  52.4167190  28.5191120
  14.1030560  51.5488250  28.2869760  14.2018550  52.6225710  29.3496080
  18.3689470  50.7476200  26.1793090  18.0685010  50.6241170  27.0797000
  18.2626960  49.8884790  25.7708820  14.2617760  53.2837780  31.2572750
  13.8248750  53.4638580  32.0896900  14.8295440  54.0412400  31.1154470
  29.8979940  52.7854780  35.5450060  29.2981930  52.8447340  34.8013980
  30.0273840  51.8459760  35.6746910  31.1381390  50.5272600  20.8819770
  30.3074350  50.5949250  21.3527000  31.3153220  51.4176720  20.5786630
  30.5937850  47.2720080  23.3853970  31.3556760  47.8416730  23.4913660
  30.6092220  46.7047280  24.1562280  14.0942190  45.7958010  27.6161630
  13.4391030  45.5269650  26.9721330  14.9320140  45.6862490  27.1663610
  31.5997820  48.1270180  28.2295900  31.9706650  47.3437500  27.8231870
  32.2399750  48.8159280  28.0513200  28.5831580  49.5106760  33.6426220
  27.7691420  49.9403920  33.9052010  28.9905780  50.1225170  33.0295270
  30.6457020  47.5654450  20.5426490  30.9205860  48.4733330  20.4145710
  30.4567760  47.5016980  21.4788480  27.0432630  40.5899300  21.8380120
  27.4617510  40.4030280  20.9976780  26.7368690  39.7378350  22.1483050
  30.5422360  45.5023440  25.5355920  30.1665960  44.7351370  25.1037210
  29.8125480  45.8846140  26.0230850  15.1318120  46.1810580  32.1564970
  15.4991160  46.0937980  33.0360990  14.5628940  45.4177130  32.0571830
  29.9321980  44.6494960  35.1695440  29.7008070  44.4207710  34.2693390
  30.1926530  45.5694510  35.1240330  14.6834120  43.0919670  36.0623390
  13.7890170  43.0586430  36.4017100  15.2231670  43.2906460  36.8274640
  13.3080270  43.0056940  23.5586960  12.4044350  43.2687140  23.3838620
  13.7920890  43.2768110  22.7786920  29.8173320  43.7280930  28.8363160
  30.3410800  43.2343580  28.2053330  30.4032740  43.8631290  29.5810730
  29.9963040  43.8120800  32.3582710  29.0465750  43.7784340  32.4727700
  30.1776050  44.7220910  32.1232480  15.8507480  42.0622480  21.4681340
  16.5599180  41.6405700  20.9828620  15.1347420  42.1297710  20.8364690
  15.4981640  38.1161810  20.5083990  16.2209770  38.6570750  20.8265210
  15.7706160  37.8425230  19.6325530  29.3073290  42.9854280  24.7755570
  29.8032410  42.7525150  25.5604450  29.1089360  42.1466120  24.3593210
  15.1873830  37.3668000  30.4106610  15.8350020  36.8165380  29.9701770
  15.6075670  37.6211150  31.2322420  30.7360450  41.6215230  27.3093250
  30.6259730  41.4671270  28.2475520  31.4968040  41.0936170  27.0668660
  29.0826170  37.5609360  33.7676250  29.7198390  38.1743500  34.1335440
  29.2301060  37.5970020  32.8225480  31.6250720  39.4523150  20.5499390
  32.5500030  39.3204330  20.3417680  31.6026510  39.5315970  21.5035840
  31.6989210  40.2233810  23.1756100  30.9040710  40.1578930  23.7049010
  31.9032490  41.1584450  23.1641450  28.6407630  54.2625360  27.1694490
  29.2366700  53.9409930  26.4928910  28.8985780  53.7897180  27.9607760
  14.9405830  37.5223670  33.1531930  14.5920650  37.9787490  33.9190110
  14.6093530  36.6280800  33.2354360  16.5470200  50.6943270  37.3185120
  16.5039830  50.3236180  38.1999580  16.6781210  51.6320840  37.4586940
  20.2476230  52.2502860  32.9194840  20.0067590  52.5177420  32.0325360
  21.1878870  52.4208590  32.9745700  22.4530650  38.7135550  36.6751350
  22.3919540  39.3057380  37.4246760  23.3931030  38.6061510  36.5301610
  25.0905210  38.3705610  36.3143640  25.7045620  38.6884900  35.6524720
  25.6354770  37.8854200  36.9339500  31.5080390  54.2697240  33.7205480
  31.0138670  54.6666110  33.0032610  30.8993680  53.6446450  34.1142760
  15.6126470  37.0499870  36.4282700  16.1609460  36.8687920  35.6648810
  15.6781780  36.2593980  36.9639010  16.3858230  53.6405520  34.4382900
  15.7918550  53.5090220  35.1772940  16.3782070  52.8043660  33.9725000
  25.8313250  36.9337750  32.6412930  24.9573090  37.2672860  32.4385860
  25.7224000  36.4610930  33.4664800  26.7385230  39.1408620  34.0254650
  26.4098590  38.3260380  33.6456380  27.6867530  39.0978430  33.9020340
  29.1919840  54.9120660  30.9992220  28.7322810  55.6636470  30.6250240
  28.5632300  54.1927130  30.9407020  16.0170460  51.0063900  33.3890940
  15.2904520  50.3869190  33.3216890  16.0779610  51.4004510  32.5189020
  19.6215560  53.2208900  30.1740350  20.1380580  52.6096260  29.6488610
  20.2712940  53.7237680  30.6651360  22.3611060  54.1117390  31.0009330
  22.6488870  53.8571690  30.1242340  22.8734280  53.5594750  31.5914900
  23.5788070  37.8507590  31.5805840  22.7959860  38.3253090  31.8602600
  23.2851000  36.9462420  31.4719020  28.1309140  38.5530690  29.6254930
  28.5717230  38.4975790  28.7776530  27.8616730  39.4688700  29.6965110
  29.9947710  38.1845930  27.6363750  29.9336110  37.2407150  27.4894770
  30.7739740  38.2926020  28.1817210  14.3000460  54.3238290  26.5987700
  14.1322500  53.6908970  27.2969590  13.4334970  54.5297690  26.2481890
  14.9228480  38.1555070  24.1019560  15.6807840  38.2683950  23.5283590
  14.4605650  38.9924270  24.0562990  21.4642290  40.2694340  27.0921870
  20.6516800  39.8951230  26.7517750  21.9683930  39.5139420  27.3943060
  25.9667270  36.9336790  28.3304940  26.5696640  37.5057000  28.8053460
  25.2260260  37.4976230  28.1078840  29.1101870  37.3358350  23.6045220
  29.3052500  38.2341800  23.8712650  28.3231740  37.1045430  24.0978170
  15.9063160  53.0171520  24.0437840  15.3810780  53.3979550  23.3399800
  15.8307740  53.6422290  24.7647550  17.2953630  38.6819120  22.6421530
  17.8246390  37.8948920  22.5129480  17.9281950  39.3610310  22.8757060
  19.4891470  38.4194260  25.6966920  18.8594210  37.7181570  25.8637050
  18.9496610  39.1798390  25.4800080  22.4283420  55.0333490  38.3677530
  23.3550730  54.7977760  38.4113490  22.4133850  55.8605490  37.8863560
  30.6628480  54.5759060  25.3651780  30.8380670  53.8896800  24.7212700
  29.9650050  55.1006110  24.9728450  19.6147030  37.6978240  38.1319410
  19.3331300  38.2011840  37.3680230  19.9966730  36.8999990  37.7661540
  18.5056130  54.9653900  22.9187090  19.2374950  54.6813180  22.3710980
  18.7649800  54.7267180  23.8086470  17.6670920  51.0818630  22.9233420
  17.0379800  51.5503730  23.4719250  17.7818750  50.2367850  23.3579610
  26.2162490  37.1131820  38.7099880  26.1027940  37.4326430  39.6051400
  27.0332230  37.5144330  38.4137160  28.9960980  54.2603350  38.1918570
  29.7886300  53.7652580  37.9844530  29.2894130  54.9393490  38.7994180
  25.1220640  45.1324290   9.0734620  25.0414690  44.2178900   8.8026330
  24.7085060  45.6291360   8.3674330  23.2538680  46.9103310  10.9543890
  22.4780780  46.4303750  11.2442460  23.9051610  46.2308960  10.7800050
  17.2704510  47.2223120  11.8319650  16.4389390  46.9671830  12.2316160
  17.8785490  47.2933890  12.5677570  27.2746110  51.3163500   9.7343020
  26.8127640  50.5450740  10.0630190  28.0871660  51.3429570  10.2395470
  17.2505770  51.2563210  12.0277670  17.5533810  50.3660950  11.8487890
  17.9949360  51.8133430  11.7999920  15.6796460  42.1825010   5.6162040
  14.7913160  42.5240980   5.5141920  15.9637650  41.9825330   4.7242870
  13.6429470  44.7830660  11.5001740  14.2145580  44.0152860  11.5005380
  13.6431010  45.0819420  10.5908350  23.5009420  53.6021510   9.3547010
  22.8820860  54.0579010   8.7841450  24.3561200  53.7572970   8.9536710
  22.6947670  49.5860500  10.9614050  22.6255950  48.6450440  10.8003180
  23.4567530  49.6761910  11.5336620  14.8854340  40.1915020  13.2870670
  14.7057180  39.2940770  13.5673430  14.4834420  40.7386890  13.9617620
  23.7252840  42.3930880  11.1882980  24.1017660  41.5202760  11.0756650
  23.6272350  42.7289580  10.2973420  17.8557850  40.7656510   6.6500420
  17.9624600  41.6660240   6.9569180  16.9450210  40.7174480   6.3595070
  27.5076960  39.8881320   8.1211320  28.3286580  39.3977890   8.1636800
  27.5411040  40.4778980   8.8743160  15.5041010  42.6875520  11.8953010
  16.1851120  42.9513890  12.5140410  15.1889060  41.8476390  12.2291020
  19.6965580  43.7342880  10.9825600  20.2043800  44.2323850  11.6230620
  20.2278820  42.9578080  10.8064960  31.7976510  41.9048070  14.6854950
  31.0928680  42.2929780  14.1670060  32.0634430  42.5998360  15.2875880
  17.9801680  38.3741440  15.2489020  17.9820120  38.8913830  14.4434920
  17.1505990  37.8971620  15.2258950  24.3672770  48.4860750   6.7478920
  23.7490040  48.9510200   6.1841640  24.8796020  49.1788230   7.1648430
  19.2304530  48.0136620  13.4262520  18.8973910  48.6405540  14.0683590
  19.4071210  48.5398500  12.6464190  27.7438440  41.8281700  10.8938860
  27.0394010  42.1166590  11.4741970  28.1050600  42.6381810  10.5338420
  17.6617010  40.0851400  13.2559470  18.0033820  40.9293450  12.9613340
  16.7232820  40.2335140  13.3724810  18.4423630  49.9817420  15.2411700
  19.0597630  50.6568500  14.9596150  17.5816750  50.3905400  15.1499200
  13.7355970  49.1717280   4.1218550  13.3583950  49.6604380   3.3903450
  13.9929040  49.8442560   4.7525080  29.3601220  51.4456830  13.1566340
  28.6764740  52.1155940  13.1483010  29.8995510  51.6437480  12.3911200
  30.8125360  41.2736490  11.2848070  29.8650270  41.3075470  11.4163500
  31.1375350  42.0875440  11.6697430  21.3444900  37.5733670   9.5804060
  21.6519880  37.0180560   8.8639560  20.4145600  37.7078130   9.3977050
  26.8959960  53.2900960  11.8711520  26.9087120  52.8863250  11.0033780
  26.3435180  54.0648250  11.7672950  28.1905380  50.0117180   6.9601690
  28.0801710  49.0691510   7.0851110  28.1873630  50.3732820   7.8464450
  26.2945400  48.1930800  13.1994130  26.7114190  47.9790910  12.3647590
  27.0185220  48.4503590  13.7702750  23.7325660  45.6382500   6.3164180
  22.8054940  45.5719880   6.5452650  23.8850480  46.5762630   6.2019420
  23.7194740  41.9099500   3.3131340  22.7798410  42.0713460   3.3983800
  24.0378000  42.6285180   2.7667330  30.2407500  46.5918020  13.2910370
  29.4126130  46.6611110  12.8160500  30.8357980  47.1772330  12.8226200
  27.7622950  47.2002800   6.8199430  27.1435370  46.8622350   6.1725730
  27.7447400  46.5562560   7.5278620  27.2049510  43.3787340  14.2365240
  26.7920690  44.2041050  14.4905230  26.4725460  42.7932380  14.0441600
  19.3382300  46.1647240   9.0983910  18.9339300  45.4524490   8.6029810
  19.4245420  45.8200480   9.9871950  19.8064000  49.8514800  11.2623120
  19.5092290  49.2460270  10.5830900  20.7563820  49.8892110  11.1512480
  18.0510920  42.9390450  12.8782950  18.6025510  43.0485790  12.1036200
  18.5654430  43.3128050  13.5938180  27.8949610  53.4246670  14.9246220
  27.4180170  54.2318860  14.7318830  27.2111400  52.7725000  15.0772430
  18.8982430  49.5896490  17.9130920  18.0010960  49.8136460  18.1604320
  18.9235300  49.7131430  16.9642320  25.9387650  46.4389610   3.8272180
  26.3780930  45.6012040   3.6810000  26.6516070  47.0719010   3.9136320
  17.7253650  46.4609810  16.4888290  17.5861420  47.3332610  16.8575690
  16.8435010  46.1182620  16.3436230  24.0483030  51.3785680   7.7953420
  24.4878940  52.1210010   7.3808810  23.9869920  51.6212250   8.7192380
  19.5234000  52.4031510  18.6973440  19.4949430  52.8074460  17.8301870
  19.3598970  51.4741870  18.5345040  29.5204790  37.6932420   2.1413220
  29.2077450  37.7859250   3.0412290  30.2817260  38.2713450   2.0910650
  16.0386930  45.0592220   6.5990560  15.9184530  45.7854310   5.9871830
  15.7287820  44.2895130   6.1218470  31.4748820  53.1858610  19.9937610
  31.9508540  53.6641500  20.6726690  32.0955980  53.1176100  19.2683110
  13.6772300  48.2307360  12.4059200  13.7552720  48.3656130  11.4614920
  14.2913980  47.5223250  12.5987320  14.9219930  49.9307550   8.8165380
  14.5148010  50.0722140   7.9618980  15.8132940  49.6467710   8.6136590
  30.8782070  50.3771460  17.1537620  31.0045130  50.1383340  16.2354800
  30.9203450  49.5456000  17.6259700  24.7398810  54.0799460  15.7232430
  25.2543480  53.9907470  16.5254860  23.8967890  54.4259160  16.0160340
  26.7153210  54.3654800   5.1516430  26.5554350  54.0757740   6.0498260
  26.5499920  53.5894930   4.6161660  19.1941590  54.1453330   6.9288050
  19.0184070  53.2288870   6.7155850  18.3397330  54.5040620   7.1685850
  26.4179340  51.8742360   3.7114430  25.7244500  51.8719650   3.0516710
  27.1602200  51.4501680   3.2808600  25.9829270  53.5005070   7.7862920
  26.4386220  52.7194450   8.1001540  26.3221790  54.2111890   8.3304100
  30.7306080  42.4303920  18.1187360  30.1150350  42.9383590  17.5902820
  30.4102500  41.5302250  18.0613300  13.7331820  49.2721530  14.9453660
  13.8962860  48.8026890  14.1273030  14.1984270  48.7645090  15.6102500
  18.5050590  38.4027290   9.9814230  18.0618740  39.1836830   9.6498750
  19.0635580  38.7257180  10.6885170  22.7920400  41.2695810  15.5849550
  22.3299770  41.4778830  16.3969490  22.3898510  40.4555160  15.2820220
  27.7924910  42.4904760  16.7146210  26.9418500  42.1910510  17.0355280
  27.6326700  42.7346770  15.8030030  24.8874620  43.9906510  18.8145000
  25.2128030  43.1570260  18.4747230  25.6754950  44.5135030  18.9623330
  21.6209410  38.0237990   4.8620060  20.9963590  38.0197860   5.5873370
  21.5339530  37.1568950   4.4656030  20.5426490  38.9474620  11.8403830
  20.8398820  39.8537450  11.7595850  21.0912050  38.4593400  11.2263400
  18.2964810  43.5260860   7.7095480  18.0705730  43.3098030   8.6142100
  17.5157340  43.9589320   7.3641450  25.5262570  43.5324230   6.3086130
  24.9271460  44.2560030   6.1249750  26.0742180  43.4701010   5.5262580
  20.7364020  44.4246440  18.3755750  20.6407620  43.4841170  18.2256150
  21.5796000  44.6461510  17.9803820  24.1327440  42.1687770   8.3389410
  24.5257010  42.4859970   7.5258100  24.4944290  41.2899650   8.4533930
  15.8674560  40.8360110  16.5289530  15.4737950  41.6835320  16.7362310
  15.1792960  40.1986480  16.7198170  22.4419610  40.9195080  19.5986270
  21.7517930  40.7267280  20.2332360  23.1851910  41.2029720  20.1310570
  13.1691610  38.7588570  10.5619610  12.8804660  39.3291430  11.2744590
  13.9137370  38.2793020  10.9250840  24.7182580  44.7593520  12.4340190
  23.9863700  45.2680330  12.7830290  24.3206920  43.9423500  12.1328970
  21.1559970  41.4347720  10.8392680  21.1596030  40.9937670   9.9897220
  22.0511090  41.7565050  10.9464500  17.0062350  41.3174210   9.7986890
  16.6662400  41.7949440  10.5553940  16.2439670  40.8639330   9.4387990
  21.2180120  42.4359800   3.8299440  21.3392940  42.3946280   4.7785260
  20.8328630  43.2983950   3.6746170  25.1808490  40.2127200  11.8463130
  25.1981230  40.6635850  12.6904980  24.9324070  39.3132840  12.0596570
  20.2301620  44.7460940   3.2282740  19.6618520  44.2979190   2.6018650
  20.9390620  45.1053720   2.6947890  28.6079240  37.6259380  17.6849510
  28.9325010  36.8949040  18.2107490  28.6435750  37.3073020  16.7830500
  15.3070800  48.6472960  17.1049470  14.9225590  48.0066630  17.7032430
  15.6182990  49.3509080  17.6744200  21.4567940  45.4949500  12.5858090
  21.8238070  45.0208070  13.3319430  21.2673000  46.3691070  12.9266430
  14.3208430  40.2393190   8.7151560  14.0355350  39.8748860   9.5530180
  14.2587290  39.5073650   8.1014700  19.2467310  44.5358140  14.9042300
  18.9424380  45.4150120  15.1292660  20.2013770  44.5957930  14.9399740
  17.7749100  48.7419130   5.5009150  17.0011360  48.2016750   5.3407870
  18.5043730  48.2225740   5.1626910  28.5337080  47.7384490  11.2935540
  29.2536200  48.2339780  10.9031650  28.3318900  47.0602380  10.6489410
  23.9947020  39.1322450   5.4364930  23.1811630  38.6335620   5.3610240
  23.8008970  39.9720700   5.0201280  23.9155880  47.8093550  17.1804540
  23.8493190  46.8889220  16.9262130  23.2861020  47.9068990  17.8949180
  26.7095410  43.5042100   3.7327090  27.5975030  43.8159330   3.5578430
  26.6800500  42.6314350   3.3407670  17.8186500  48.4099510   9.1387960
  18.3365170  47.6067770   9.0844850  17.3670520  48.3478650   9.9804790
  22.7056000  49.6765790   4.4115260  23.0471700  50.4208020   3.9158580
  21.8768710  49.9896910   4.7740090  15.3031040  45.3760880  16.0513660
  14.9445980  46.0414730  16.6387000  15.0085600  44.5444430  16.4226280
  18.5044160  45.8345120  18.9353210  18.2044300  45.9802300  18.0381030
  19.2755400  45.2750410  18.8426600  23.8472610  50.6314120  16.9308340
  23.8617150  49.6995080  16.7127250  23.1397710  50.7173880  17.5698110
  28.9809680  44.8153940   3.2006950  28.8973400  45.2468160   2.3503390
  29.7003870  45.2752290   3.6333770  30.0583820  47.2721460  16.2776920
  29.3332010  47.8650240  16.0806310  30.5859280  47.2645000  15.4790290
  30.0096930  51.6696200   5.9289080  29.3673090  51.0151820   6.2032800
  29.6227590  52.0751290   5.1529750  25.5883410  48.9981630   9.7760770
  25.9407230  48.4009760   9.1162140  24.7045740  48.6725860   9.9469020
  21.6746690  49.7579320   7.1831180  22.3617820  50.3048530   7.5638770
  20.8879110  50.3020050   7.2180790  13.8139090  45.3752140   2.6748260
  14.6833940  45.6576940   2.9584180  13.3229410  46.1888010   2.5597070
  20.9773900  46.7625350   6.7956540  21.4336680  47.5730600   7.0216730
  20.6262110  46.4448490   7.6275030  23.2806510  52.2731690  14.0248840
  23.9248730  52.4791070  14.7022260  23.6435950  51.5120090  13.5719690
  16.8785680  37.1063000   7.2679060  16.7500310  37.0980900   8.2163980
  16.0547700  37.4446090   6.9170070  24.5538590  50.2764040  12.7426290
  25.1960820  49.5757200  12.8558460  25.0787940  51.0562480  12.5623180
  28.3994310  50.5612660   2.4665430  28.1731890  49.8443100   3.0590070
  28.0090510  50.3125100   1.6287180  26.3276210  51.0758940  15.9462350
  26.6632450  51.6625630  16.6240270  25.4076550  50.9451650  16.1760140
  14.1810340  54.5879520   3.2409890  14.5407980  55.1868860   2.5867160
  14.0402680  55.1339410   4.0144920  13.8779610  38.8654120  16.7285760
  13.1638130  39.0651040  17.3338370  14.2974650  38.0893690  17.1000560
  27.9810560  48.4784600   4.1279590  27.6932260  48.9397290   4.9157470
  28.7762730  48.0182370   4.3963810  14.1652200  52.8534380  17.7152290
  14.2743320  51.9129120  17.5747680  13.5132760  53.1189130  17.0666020
  22.1564790  51.1250270  19.1150410  21.8361660  50.4059510  19.6596100
  21.4823150  51.8005340  19.1886470  20.1978960  51.9710720   4.0583560
  20.1889060  52.7040410   3.4428070  19.2777320  51.7242300   4.1510520
  15.7985600  47.1925610   4.8030320  15.1913550  47.9324510   4.8125620
  16.2734950  47.2824970   3.9768520  25.3718390  41.3576430  14.4787210
  25.7399210  40.5371640  14.8066780  24.5116590  41.4178320  14.8942860
  28.7380420  40.3133370   5.2874770  28.1093580  40.4179040   4.5733000
  28.2432340  40.5330150   6.0768650  23.1838560  52.0338960   2.7208750
  23.2850540  51.8302950   1.7910730  22.2840300  51.7797240   2.9256530
  20.7064450  42.5919320   6.7032650  19.9980600  43.0605660   7.1446260
  20.9908930  41.9341330   7.3377840  22.3320380  44.0116020  14.7025180
  22.8305630  44.4861840  15.3677030  22.4743330  43.0879540  14.9095210
  24.7379880  39.3169980   8.1428440  24.6147660  39.3356110   7.1937950
  25.6864440  39.3648920   8.2626840  21.8256670  54.5525280   7.4156420
  22.0798170  54.5146670   6.4935790  20.8769150  54.4258610   7.4084670
  18.9099470  40.9004400   4.0783360  19.7590000  41.3374550   4.0123550
  18.5430740  41.2124660   4.9055420  29.5387240  40.2283980  15.5453570
  29.0360840  40.9689380  15.8847380  30.3543900  40.6167980  15.2290360
  27.8309250  45.4717160   8.9914930  26.8899390  45.4867390   9.1662620
  28.1453320  44.6853120   9.4375230  17.8090890  47.1536760   2.5518890
  18.5754160  47.0418120   3.1144320  17.8865580  46.4574730   1.8995660
  16.5037650  44.5861830   3.2351780  16.5841240  43.6389340   3.3469180
  17.3957400  44.9168710   3.3412440  29.8334830  52.6426010  10.6669190
  29.9582250  53.4657180  11.1393000  30.7000390  52.4316740  10.3193340
  17.3052360  54.7357220  10.3386320  18.0414840  54.1872680  10.6094890
  17.6893280  55.6013230  10.1992310  14.1897840  50.8030790   6.2127830
  13.2637620  51.0451930   6.2033240  14.6554270  51.6305050   6.0912580
  16.3110640  53.9203290  19.5271900  17.1123370  54.2415340  19.9407300
  15.7962460  53.5598870  20.2491810  20.4154670  53.9087530   2.1611890
  21.2083280  54.1976360   1.7093680  19.8959020  53.4779700   1.4824370
  25.1475270  50.0283160  19.4747310  24.5413430  50.0514760  18.7343060
  24.8429380  49.2966200  20.0114560  26.5775640  53.7563450  18.0856720
  27.5297390  53.6721470  18.0356960  26.4303860  54.4205160  18.7590510
  29.4684840  53.1357660   3.5848630  29.1826350  52.7222800   2.7702810
  29.2704390  54.0645370   3.4649150  14.0308450  46.4076750  18.4707950
  14.5347470  45.8284030  19.0424180  13.2915870  46.6916980  19.0084320
  21.0846390  47.8147740  18.0043470  20.3192060  48.3832740  17.9198140
  21.2662350  47.5223950  17.1111700  24.1734800  48.1910970   2.6296230
  23.6244900  48.6380270   3.2738970  24.7954060  47.6860220   3.1533900
  28.2269740  49.5453070  18.5618490  28.9679210  49.8828830  18.0585950
  27.4642420  49.7145130  18.0088260  16.0631530  44.5506340  19.3658020
  16.1036870  44.2520210  20.2743250  16.9177030  44.9513950  19.2065540
  19.8409920  47.1501890   4.5261530  20.2626340  46.9841760   5.3692920
  19.9660760  46.3402120   4.0316670  18.0037340  43.1298440  17.3332510
  17.4733800  42.6389390  16.7055850  18.6725410  43.5582640  16.7990440
  26.9015400  47.5967900  17.0973700  27.3156420  47.7512980  17.9464120
  25.9666400  47.7223120  17.2599480  27.3737570  44.9364060  19.1012850
  27.9558340  44.1816380  19.0133330  27.5499340  45.4671500  18.3244330
  18.4909640  40.0960810  17.4129800  18.3966510  39.4781560  16.6880670
  17.9107030  40.8227100  17.1859710  21.2571080  38.6534050  14.4457190
  20.8088380  38.6758310  13.6002740  20.6236280  38.2553070  15.0427490
  21.6630630  47.5488380  15.0669630  22.0818740  48.3921110  14.8945870
  20.7439260  47.6860420  14.8376410  23.9994530  45.2804560  16.4507470
  24.1190740  44.6845700  17.1902310  24.8588530  45.3174250  16.0308770
  26.3382430  45.8341750  15.0269980  25.8117650  46.3584370  14.4235120
  26.6813770  46.4669140  15.6579710  19.5138050  53.8541390  16.1827360
  18.9759140  54.5787450  15.8636060  19.7672010  53.3771730  15.3924700
  20.7663300  41.8225910  17.7083290  21.3562990  41.5141760  18.3961110
  19.9483540  41.3505660  17.8643190  25.5856730  41.4391720  17.9416310
  24.8972250  40.7773260  17.8766300  26.3062750  40.9929990  18.3864770
  26.2157130  38.0343350   4.0006570  26.4959420  37.1911250   4.3565990
  25.4422860  38.2666460   4.5145320  22.3700260  55.0892600  16.4414010
  22.2958960  55.9927740  16.7486380  21.4679100  54.7704500  16.4136080
  20.7536550  39.2670360   2.4453770  20.4058550  38.5894350   1.8656220
  20.9549320  38.8059870   3.2597160  22.9185590  54.2551110   4.0640370
  23.8136380  54.5936080   4.0859130  22.9503220  53.5330520   3.4364650
  16.5581750  49.6278160   2.2927370  16.9956620  50.1707830   2.9484950
  17.0429480  48.8025110   2.3023710  13.7727550  52.4167190   9.7447630
  14.1030560  51.5488250   9.5126270  14.2018550  52.6225710  10.5752590
  18.3689470  50.7476200   7.4049600  18.0685010  50.6241170   8.3053510
  18.2626960  49.8884790   6.9965330  14.2617760  53.2837780  12.4829260
  13.8248750  53.4638580  13.3153410  14.8295440  54.0412400  12.3410980
  29.8979940  52.7854780  16.7706570  29.2981930  52.8447340  16.0270490
  30.0273840  51.8459760  16.9003420  31.1381390  50.5272600   2.1076280
  30.3074350  50.5949250   2.5783510  31.3153220  51.4176720   1.8043140
  30.5937850  47.2720080   4.6110480  31.3556760  47.8416730   4.7170170
  30.6092220  46.7047280   5.3818790  14.0942190  45.7958010   8.8418140
  13.4391030  45.5269650   8.1977840  14.9320140  45.6862490   8.3920120
  31.5997820  48.1270180   9.4552410  31.9706650  47.3437500   9.0488380
  32.2399750  48.8159280   9.2769710  28.5831580  49.5106760  14.8682730
  27.7691420  49.9403920  15.1308520  28.9905780  50.1225170  14.2551780
  30.6457020  47.5654450   1.7683000  30.9205860  48.4733330   1.6402220
  30.4567760  47.5016980   2.7044990  27.0432630  40.5899300   3.0636630
  27.4617510  40.4030280   2.2233290  26.7368690  39.7378350   3.3739560
  30.5422360  45.5023440   6.7612430  30.1665960  44.7351370   6.3293720
  29.8125480  45.8846140   7.2487360  15.1318120  46.1810580  13.3821480
  15.4991160  46.0937980  14.2617500  14.5628940  45.4177130  13.2828340
  29.9321980  44.6494960  16.3951950  29.7008070  44.4207710  15.4949900
  30.1926530  45.5694510  16.3496840  14.6834120  43.0919670  17.2879900
  13.7890170  43.0586430  17.6273610  15.2231670  43.2906460  18.0531150
  28.3710050  39.8751390  19.1731650  29.2480230  39.8834790  19.5565650
  28.3830890  39.1382230  18.5624000  13.3080270  43.0056940   4.7843470
  12.4044350  43.2687140   4.6095130  13.7920890  43.2768110   4.0043430
  29.8173320  43.7280930  10.0619670  30.3410800  43.2343580   9.4309840
  30.4032740  43.8631290  10.8067240  29.9963040  43.8120800  13.5839220
  29.0465750  43.7784340  13.6984210  30.1776050  44.7220910  13.3488990
  15.8507480  42.0622480   2.6937850  16.5599180  41.6405700   2.2085130
  15.1347420  42.1297710   2.0621200  29.3073290  42.9854280   6.0012080
  29.8032410  42.7525150   6.7860960  29.1089360  42.1466120   5.5849720
  15.1873830  37.3668000  11.6363120  15.8350020  36.8165380  11.1958280
  15.6075670  37.6211150  12.4578930  30.7360450  41.6215230   8.5349760
  30.6259730  41.4671270   9.4732030  31.4968040  41.0936170   8.2925170
  29.0826170  37.5609360  14.9932760  29.7198390  38.1743500  15.3591950
  29.2301060  37.5970020  14.0481990  31.6250720  39.4523150   1.7755900
  32.5500030  39.3204330   1.5674190  31.6026510  39.5315970   2.7292350
  31.6989210  40.2233810   4.4012610  30.9040710  40.1578930   4.9305520
  31.9032490  41.1584450   4.3897960  28.6407630  54.2625360   8.3951000
  29.2366700  53.9409930   7.7185420  28.8985780  53.7897180   9.1864270
  14.9405830  37.5223670  14.3788440  14.5920650  37.9787490  15.1446620
  14.6093530  36.6280800  14.4610870  16.5470200  50.6943270  18.5441630
  16.5039830  50.3236180  19.4256090  16.6781210  51.6320840  18.6843450
  20.2476230  52.2502860  14.1451350  20.0067590  52.5177420  13.2581870
  21.1878870  52.4208590  14.2002210  22.4530650  38.7135550  17.9007860
  22.3919540  39.3057380  18.6503270  23.3931030  38.6061510  17.7558120
  25.0905210  38.3705610  17.5400150  25.7045620  38.6884900  16.8781230
  25.6354770  37.8854200  18.1596010  31.5080390  54.2697240  14.9461990
  31.0138670  54.6666110  14.2289120  30.8993680  53.6446450  15.3399270
  15.6126470  37.0499870  17.6539210  16.1609460  36.8687920  16.8905320
  15.6781780  36.2593980  18.1895520  16.3858230  53.6405520  15.6639410
  15.7918550  53.5090220  16.4029450  16.3782070  52.8043660  15.1981510
  25.8313250  36.9337750  13.8669440  24.9573090  37.2672860  13.6642370
  25.7224000  36.4610930  14.6921310  26.7385230  39.1408620  15.2511160
  26.4098590  38.3260380  14.8712890  27.6867530  39.0978430  15.1276850
  29.1919840  54.9120660  12.2248730  28.7322810  55.6636470  11.8506750
  28.5632300  54.1927130  12.1663530  16.0170460  51.0063900  14.6147450
  15.2904520  50.3869190  14.5473400  16.0779610  51.4004510  13.7445530
  19.6215560  53.2208900  11.3996860  20.1380580  52.6096260  10.8745120
  20.2712940  53.7237680  11.8907870  22.3611060  54.1117390  12.2265840
  22.6488870  53.8571690  11.3498850  22.8734280  53.5594750  12.8171410
  23.5788070  37.8507590  12.8062350  22.7959860  38.3253090  13.0859110
  23.2851000  36.9462420  12.6975530  28.1309140  38.5530690  10.8511440
  28.5717230  38.4975790  10.0033040  27.8616730  39.4688700  10.9221620
  29.9947710  38.1845930   8.8620260  29.9336110  37.2407150   8.7151280
  30.7739740  38.2926020   9.4073720  14.3000460  54.3238290   7.8244210
  14.1322500  53.6908970   8.5226100  13.4334970  54.5297690   7.4738400
  14.9228480  38.1555070   5.3276070  15.6807840  38.2683950   4.7540100
  14.4605650  38.9924270   5.2819500  21.4642290  40.2694340   8.3178380
  20.6516800  39.8951230   7.9774260  21.9683930  39.5139420   8.6199570
  25.9667270  36.9336790   9.5561450  26.5696640  37.5057000  10.0309970
  25.2260260  37.4976230   9.3335350  29.1101870  37.3358350   4.8301730
  29.3052500  38.2341800   5.0969160  28.3231740  37.1045430   5.3234680
  15.9063160  53.0171520   5.2694350  15.3810780  53.3979550   4.5656310
  15.8307740  53.6422290   5.9904060  17.2953630  38.6819120   3.8678040
  17.8246390  37.8948920   3.7385990  17.9281950  39.3610310   4.1013570
  19.4891470  38.4194260   6.9223430  18.8594210  37.7181570   7.0893560
  18.9496610  39.1798390   6.7056590  22.4283420  55.0333490  19.5934040
  23.3550730  54.7977760  19.6370000  22.4133850  55.8605490  19.1120070
  30.6628480  54.5759060   6.5908290  30.8380670  53.8896800   5.9469210
  29.9650050  55.1006110   6.1984960  19.6147030  37.6978240  19.3575920
  19.3331300  38.2011840  18.5936740  19.9966730  36.8999990  18.9918050
  18.5056130  54.9653900   4.1443600  19.2374950  54.6813180   3.5967490
  18.7649800  54.7267180   5.0342980  17.6670920  51.0818630   4.1489930
  17.0379800  51.5503730   4.6975760  17.7818750  50.2367850   4.5836120
  26.2162490  37.1131820  19.9356390  26.1027940  37.4326430  20.8307910
  27.0332230  37.5144330  19.6393670  28.9960980  54.2603350  19.4175080
  29.7886300  53.7652580  19.2101040  29.2894130  54.9393490  20.0250690
  25.1220640  26.3580800  65.3965090  25.0414690  25.4435410  65.1256800
  24.7085060  26.8547870  64.6904800  23.2538680  28.1359820  67.2774360
  22.4780780  27.6560260  67.5672930  23.9051610  27.4565470  67.1030520
  17.2704510  28.4479630  68.1550120  16.4389390  28.1928340  68.5546630
  17.8785490  28.5190400  68.8908040  27.2746110  32.5420010  66.0573490
  26.8127640  31.7707250  66.3860660  28.0871660  32.5686080  66.5625940
  17.2505770  32.4819720  68.3508140  17.5533810  31.5917460  68.1718360
  17.9949360  33.0389940  68.1230390  15.6796460  23.4081520  61.9392510
  14.7913160  23.7497490  61.8372390  15.9637650  23.2081840  61.0473340
  13.6429470  26.0087170  67.8232210  14.2145580  25.2409370  67.8235850
  13.6431010  26.3075930  66.9138820  23.5009420  34.8278020  65.6777480
  22.8820860  35.2835520  65.1071920  24.3561200  34.9829480  65.2767180
  22.6947670  30.8117010  67.2844520  22.6255950  29.8706950  67.1233650
  23.4567530  30.9018420  67.8567090  14.8854340  21.4171530  69.6101140
  14.7057180  20.5197280  69.8903900  14.4834420  21.9643400  70.2848090
  23.7252840  23.6187390  67.5113450  24.1017660  22.7459270  67.3987120
  23.6272350  23.9546090  66.6203890  17.8557850  21.9913020  62.9730890
  17.9624600  22.8916750  63.2799650  16.9450210  21.9430990  62.6825540
  27.5076960  21.1137830  64.4441790  28.3286580  20.6234400  64.4867270
  27.5411040  21.7035490  65.1973630  15.5041010  23.9132030  68.2183480
  16.1851120  24.1770400  68.8370880  15.1889060  23.0732900  68.5521490
  19.6965580  24.9599390  67.3056070  20.2043800  25.4580360  67.9461090
  20.2278820  24.1834590  67.1295430  31.7976510  23.1304580  71.0085420
  31.0928680  23.5186290  70.4900530  32.0634430  23.8254870  71.6106350
  17.9801680  19.5997950  71.5719490  17.9820120  20.1170340  70.7665390
  17.1505990  19.1228130  71.5489420  24.3672770  29.7117260  63.0709390
  23.7490040  30.1766710  62.5072110  24.8796020  30.4044740  63.4878900
  19.2304530  29.2393130  69.7492990  18.8973910  29.8662050  70.3914060
  19.4071210  29.7655010  68.9694660  27.7438440  23.0538210  67.2169330
  27.0394010  23.3423100  67.7972440  28.1050600  23.8638320  66.8568890
  17.6617010  21.3107910  69.5789940  18.0033820  22.1549960  69.2843810
  16.7232820  21.4591650  69.6955280  18.4423630  31.2073930  71.5642170
  19.0597630  31.8825010  71.2826620  17.5816750  31.6161910  71.4729670
  13.7355970  30.3973790  60.4449020  13.3583950  30.8860890  59.7133920
  13.9929040  31.0699070  61.0755550  29.3601220  32.6713340  69.4796810
  28.6764740  33.3412450  69.4713480  29.8995510  32.8693990  68.7141670
  30.8125360  22.4993000  67.6078540  29.8650270  22.5331980  67.7393970
  31.1375350  23.3131950  67.9927900  21.3444900  18.7990180  65.9034530
  21.6519880  18.2437070  65.1870030  20.4145600  18.9334640  65.7207520
  26.8959960  34.5157470  68.1941990  26.9087120  34.1119760  67.3264250
  26.3435180  35.2904760  68.0903420  28.1905380  31.2373690  63.2832160
  28.0801710  30.2948020  63.4081580  28.1873630  31.5989330  64.1694920
  26.2945400  29.4187310  69.5224600  26.7114190  29.2047420  68.6878060
  27.0185220  29.6760100  70.0933220  23.7325660  26.8639010  62.6394650
  22.8054940  26.7976390  62.8683120  23.8850480  27.8019140  62.5249890
  23.7194740  23.1356010  59.6361810  22.7798410  23.2969970  59.7214270
  24.0378000  23.8541690  59.0897800  30.2407500  27.8174530  69.6140840
  29.4126130  27.8867620  69.1390970  30.8357980  28.4028840  69.1456670
  27.7622950  28.4259310  63.1429900  27.1435370  28.0878860  62.4956200
  27.7447400  27.7819070  63.8509090  27.2049510  24.6043850  70.5595710
  26.7920690  25.4297560  70.8135700  26.4725460  24.0188890  70.3672070
  19.3382300  27.3903750  65.4214380  18.9339300  26.6781000  64.9260280
  19.4245420  27.0456990  66.3102420  19.8064000  31.0771310  67.5853590
  19.5092290  30.4716780  66.9061370  20.7563820  31.1148620  67.4742950
  18.0510920  24.1646960  69.2013420  18.6025510  24.2742300  68.4266670
  18.5654430  24.5384560  69.9168650  27.8949610  34.6503180  71.2476690
  27.4180170  35.4575370  71.0549300  27.2111400  33.9981510  71.4002900
  18.8982430  30.8153000  74.2361390  18.0010960  31.0392970  74.4834790
  18.9235300  30.9387940  73.2872790  25.9387650  27.6646120  60.1502650
  26.3780930  26.8268550  60.0040470  26.6516070  28.2975520  60.2366790
  17.7253650  27.6866320  72.8118760  17.5861420  28.5589120  73.1806160
  16.8435010  27.3439130  72.6666700  24.0483030  32.6042190  64.1183890
  24.4878940  33.3466520  63.7039280  23.9869920  32.8468760  65.0422850
  19.5234000  33.6288020  75.0203910  19.4949430  34.0330970  74.1532340
  19.3598970  32.6998380  74.8575510  29.5204790  18.9188930  58.4643690
  29.2077450  19.0115760  59.3642760  30.2817260  19.4969960  58.4141120
  16.0386930  26.2848730  62.9221030  15.9184530  27.0110820  62.3102300
  15.7287820  25.5151640  62.4448940  13.6772300  29.4563870  68.7289670
  13.7552720  29.5912640  67.7845390  14.2913980  28.7479760  68.9217790
  14.9219930  31.1564060  65.1395850  14.5148010  31.2978650  64.2849450
  15.8132940  30.8724220  64.9367060  30.8782070  31.6027970  73.4768090
  31.0045130  31.3639850  72.5585270  30.9203450  30.7712510  73.9490170
  24.7398810  35.3055970  72.0462900  25.2543480  35.2163980  72.8485330
  23.8967890  35.6515670  72.3390810  26.7153210  35.5911310  61.4746900
  26.5554350  35.3014250  62.3728730  26.5499920  34.8151440  60.9392130
  19.1941590  35.3709840  63.2518520  19.0184070  34.4545380  63.0386320
  18.3397330  35.7297130  63.4916320  26.4179340  33.0998870  60.0344900
  25.7244500  33.0976160  59.3747180  27.1602200  32.6758190  59.6039070
  25.9829270  34.7261580  64.1093390  26.4386220  33.9450960  64.4232010
  26.3221790  35.4368400  64.6534570  30.7306080  23.6560430  74.4417830
  30.1150350  24.1640100  73.9133290  30.4102500  22.7558760  74.3843770
  13.7331820  30.4978040  71.2684130  13.8962860  30.0283400  70.4503500
  14.1984270  29.9901600  71.9332970  18.5050590  19.6283800  66.3044700
  18.0618740  20.4093340  65.9729220  19.0635580  19.9513690  67.0115640
  22.7920400  22.4952320  71.9080020  22.3299770  22.7035340  72.7199960
  22.3898510  21.6811670  71.6050690  27.7924910  23.7161270  73.0376680
  26.9418500  23.4167020  73.3585750  27.6326700  23.9603280  72.1260500
  24.8874620  25.2163020  75.1375470  25.2128030  24.3826770  74.7977700
  25.6754950  25.7391540  75.2853800  21.6209410  19.2494500  61.1850530
  20.9963590  19.2454370  61.9103840  21.5339530  18.3825460  60.7886500
  20.5426490  20.1731130  68.1634300  20.8398820  21.0793960  68.0826320
  21.0912050  19.6849910  67.5493870  18.2964810  24.7517370  64.0325950
  18.0705730  24.5354540  64.9372570  17.5157340  25.1845830  63.6871920
  25.5262570  24.7580740  62.6316600  24.9271460  25.4816540  62.4480220
  26.0742180  24.6957520  61.8493050  20.7364020  25.6502950  74.6986220
  20.6407620  24.7097680  74.5486620  21.5796000  25.8718020  74.3034290
  24.1327440  23.3944280  64.6619880  24.5257010  23.7116480  63.8488570
  24.4944290  22.5156160  64.7764400  15.8674560  22.0616620  72.8520000
  15.4737950  22.9091830  73.0592780  15.1792960  21.4242990  73.0428640
  13.1691610  19.9845080  66.8850080  12.8804660  20.5547940  67.5975060
  13.9137370  19.5049530  67.2481310  13.3561840  23.9265200  58.0952800
  13.2736510  24.8695960  58.2367790  13.0044900  23.7840110  57.2165150
  24.7182580  25.9850030  68.7570660  23.9863700  26.4936840  69.1060760
  24.3206920  25.1680010  68.4559440  21.1559970  22.6604230  67.1623150
  21.1596030  22.2194180  66.3127690  22.0511090  22.9821560  67.2694970
  17.0062350  22.5430720  66.1217360  16.6662400  23.0205950  66.8784410
  16.2439670  22.0895840  65.7618460  21.2180120  23.6616310  60.1529910
  21.3392940  23.6202790  61.1015730  20.8328630  24.5240460  59.9976640
  25.1808490  21.4383710  68.1693600  25.1981230  21.8892360  69.0135450
  24.9324070  20.5389350  68.3827040  20.2301620  25.9717450  59.5513210
  19.6618520  25.5235700  58.9249120  20.9390620  26.3310230  59.0178360
  28.6079240  18.8515890  74.0079980  28.9325010  18.1205550  74.5337960
  28.6435750  18.5329530  73.1060970  15.3070800  29.8729470  73.4279940
  14.9225590  29.2323140  74.0262900  15.6182990  30.5765590  73.9974670
  21.4567940  26.7206010  68.9088560  21.8238070  26.2464580  69.6549900
  21.2673000  27.5947580  69.2496900  14.3208430  21.4649700  65.0382030
  14.0355350  21.1005370  65.8760650  14.2587290  20.7330160  64.4245170
  19.2467310  25.7614650  71.2272770  18.9424380  26.6406630  71.4523130
  20.2013770  25.8214440  71.2630210  17.7749100  29.9675640  61.8239620
  17.0011360  29.4273260  61.6638340  18.5043730  29.4482250  61.4857380
  28.5337080  28.9641000  67.6166010  29.2536200  29.4596290  67.2262120
  28.3318900  28.2858890  66.9719880  23.9947020  20.3578960  61.7595400
  23.1811630  19.8592130  61.6840710  23.8008970  21.1977210  61.3431750
  23.9155880  29.0350060  73.5035010  23.8493190  28.1145730  73.2492600
  23.2861020  29.1325500  74.2179650  26.7095410  24.7298610  60.0557560
  27.5975030  25.0415840  59.8808900  26.6800500  23.8570860  59.6638140
  17.8186500  29.6356020  65.4618430  18.3365170  28.8324280  65.4075320
  17.3670520  29.5735160  66.3035260  22.7056000  30.9022300  60.7345730
  23.0471700  31.6464530  60.2389050  21.8768710  31.2153420  61.0970560
  15.3031040  26.6017390  72.3744130  14.9445980  27.2671240  72.9617470
  15.0085600  25.7700940  72.7456750  18.5044160  27.0601630  75.2583680
  18.2044300  27.2058810  74.3611500  19.2755400  26.5006920  75.1657070
  23.8472610  31.8570630  73.2538810  23.8617150  30.9251590  73.0357720
  23.1397710  31.9430390  73.8928580  28.9809680  26.0410450  59.5237420
  28.8973400  26.4724670  58.6733860  29.7003870  26.5008800  59.9564240
  30.0583820  28.4977970  72.6007390  29.3332010  29.0906750  72.4036780
  30.5859280  28.4901510  71.8020760  30.0096930  32.8952710  62.2519550
  29.3673090  32.2408330  62.5263270  29.6227590  33.3007800  61.4760220
  25.5883410  30.2238140  66.0991240  25.9407230  29.6266270  65.4392610
  24.7045740  29.8982370  66.2699490  21.6746690  30.9835830  63.5061650
  22.3617820  31.5305040  63.8869240  20.8879110  31.5276560  63.5411260
  13.8139090  26.6008650  58.9978730  14.6833940  26.8833450  59.2814650
  13.3229410  27.4144520  58.8827540  20.9773900  27.9881860  63.1187010
  21.4336680  28.7987110  63.3447200  20.6262110  27.6705000  63.9505500
  23.2806510  33.4988200  70.3479310  23.9248730  33.7047580  71.0252730
  23.6435950  32.7376600  69.8950160  16.8785680  18.3319510  63.5909530
  16.7500310  18.3237410  64.5394450  16.0547700  18.6702600  63.2400540
  24.5538590  31.5020550  69.0656760  25.1960820  30.8013710  69.1788930
  25.0787940  32.2818990  68.8853650  28.3994310  31.7869170  58.7895900
  28.1731890  31.0699610  59.3820540  28.0090510  31.5381610  57.9517650
  26.3276210  32.3015450  72.2692820  26.6632450  32.8882140  72.9470740
  25.4076550  32.1708160  72.4990610  14.1810340  35.8136030  59.5640360
  14.5407980  36.4125370  58.9097630  14.0402680  36.3595920  60.3375390
  13.8779610  20.0910630  73.0516230  13.1638130  20.2907550  73.6568840
  14.2974650  19.3150200  73.4231030  27.9810560  29.7041110  60.4510060
  27.6932260  30.1653800  61.2387940  28.7762730  29.2438880  60.7194280
  14.1652200  34.0790890  74.0382760  14.2743320  33.1385630  73.8978150
  13.5132760  34.3445640  73.3896490  22.1564790  32.3506780  75.4380880
  21.8361660  31.6316020  75.9826570  21.4823150  33.0261850  75.5116940
  20.1978960  33.1967230  60.3814030  20.1889060  33.9296920  59.7658540
  19.2777320  32.9498810  60.4740990  15.7985600  28.4182120  61.1260790
  15.1913550  29.1581020  61.1356090  16.2734950  28.5081480  60.2998990
  25.3718390  22.5832940  70.8017680  25.7399210  21.7628150  71.1297250
  24.5116590  22.6434830  71.2173330  28.7380420  21.5389880  61.6105240
  28.1093580  21.6435550  60.8963470  28.2432340  21.7586660  62.3999120
  23.1838560  33.2595470  59.0439220  23.2850540  33.0559460  58.1141200
  22.2840300  33.0053750  59.2487000  20.7064450  23.8175830  63.0263120
  19.9980600  24.2862170  63.4676730  20.9908930  23.1597840  63.6608310
  22.3320380  25.2372530  71.0255650  22.8305630  25.7118350  71.6907500
  22.4743330  24.3136050  71.2325680  24.7379880  20.5426490  64.4658910
  24.6147660  20.5612620  63.5168420  25.6864440  20.5905430  64.5857310
  21.8256670  35.7781790  63.7386890  22.0798170  35.7403180  62.8166260
  20.8769150  35.6515120  63.7315140  18.9099470  22.1260910  60.4013830
  19.7590000  22.5631060  60.3354020  18.5430740  22.4381170  61.2285890
  29.5387240  21.4540490  71.8684040  29.0360840  22.1945890  72.2077850
  30.3543900  21.8424490  71.5520830  27.8309250  26.6973670  65.3145400
  26.8899390  26.7123900  65.4893090  28.1453320  25.9109630  65.7605700
  17.8090890  28.3793270  58.8749360  18.5754160  28.2674630  59.4374790
  17.8865580  27.6831240  58.2226130  16.5037650  25.8118340  59.5582250
  16.5841240  24.8645850  59.6699650  17.3957400  26.1425220  59.6642910
  29.8334830  33.8682520  66.9899660  29.9582250  34.6913690  67.4623470
  30.7000390  33.6573250  66.6423810  17.3052360  35.9613730  66.6616790
  18.0414840  35.4129190  66.9325360  17.6893280  36.8269740  66.5222780
  14.1897840  32.0287300  62.5358300  13.2637620  32.2708440  62.5263710
  14.6554270  32.8561560  62.4143050  20.4154670  35.1344040  58.4842360
  21.2083280  35.4232870  58.0324150  19.8959020  34.7036210  57.8054840
  26.5775640  34.9819960  74.4087190  27.5297390  34.8977980  74.3587430
  26.4303860  35.6461670  75.0820980  29.4684840  34.3614170  59.9079100
  29.1826350  33.9479310  59.0933280  29.2704390  35.2901880  59.7879620
  14.0308450  27.6333260  74.7938420  14.5347470  27.0540540  75.3654650
  13.2915870  27.9173490  75.3314790  20.9332070  30.3547450  58.3484710
  20.8282710  29.7399800  59.0746090  20.7656290  29.8313340  57.5647720
  21.0846390  29.0404250  74.3273940  20.3192060  29.6089250  74.2428610
  21.2662350  28.7480460  73.4342170  24.1734800  29.4167480  58.9526700
  23.6244900  29.8636780  59.5969440  24.7954060  28.9116730  59.4764370
  28.2269740  30.7709580  74.8848960  28.9679210  31.1085340  74.3816420
  27.4642420  30.9401640  74.3318730  19.8409920  28.3758400  60.8492000
  20.2626340  28.2098270  61.6923390  19.9660760  27.5658630  60.3547140
  18.0037340  24.3554950  73.6562980  17.4733800  23.8645900  73.0286320
  18.6725410  24.7839150  73.1220910  22.3537560  27.3996010  58.0969100
  22.8743220  26.6845030  57.7310250  23.0005960  28.0381880  58.3969610
  26.9015400  28.8224410  73.4204170  27.3156420  28.9769490  74.2694590
  25.9666400  28.9479630  73.5829950  27.3737570  26.1620570  75.4243320
  27.9558340  25.4072890  75.3363800  27.5499340  26.6928010  74.6474800
  18.4909640  21.3217320  73.7360270  18.3966510  20.7038070  73.0111140
  17.9107030  22.0483610  73.5090180  21.2571080  19.8790560  70.7687660
  20.8088380  19.9014820  69.9233210  20.6236280  19.4809580  71.3657960
  21.6630630  28.7744890  71.3900100  22.0818740  29.6177620  71.2176340
  20.7439260  28.9116930  71.1606880  23.9994530  26.5061070  72.7737940
  24.1190740  25.9102210  73.5132780  24.8588530  26.5430760  72.3539240
  26.3382430  27.0598260  71.3500450  25.8117650  27.5840880  70.7465590
  26.6813770  27.6925650  71.9810180  18.7368820  24.4491630  57.7950160
  18.5357880  23.5858990  58.1563500  18.5660870  24.3624990  56.8571760
  19.5138050  35.0797900  72.5057830  18.9759140  35.8043960  72.1866530
  19.7672010  34.6028240  71.7155170  20.7663300  23.0482420  74.0313760
  21.3562990  22.7398270  74.7191580  19.9483540  22.5762170  74.1873660
  25.5856730  22.6648230  74.2646780  24.8972250  22.0029770  74.1996770
  26.3062750  22.2186500  74.7095240  26.2157130  19.2599860  60.3237040
  26.4959420  18.4167760  60.6796460  25.4422860  19.4922970  60.8375790
  17.5351620  21.5492250  57.7828040  17.8377520  21.5559680  56.8747190
  18.2746210  21.1990110  58.2795700  22.3700260  36.3149110  72.7644480
  22.2958960  37.2184250  73.0716850  21.4679100  35.9961010  72.7366550
  20.7536550  20.4926870  58.7684240  20.4058550  19.8150860  58.1886690
  20.9549320  20.0316380  59.5827630  22.9185590  35.4807620  60.3870840
  23.8136380  35.8192590  60.4089600  22.9503220  34.7587030  59.7595120
  16.5581750  30.8534670  58.6157840  16.9956620  31.3964340  59.2715420
  17.0429480  30.0281620  58.6254180  13.7727550  33.6423700  66.0678100
  14.1030560  32.7744760  65.8356740  14.2018550  33.8482220  66.8983060
  18.3689470  31.9732710  63.7280070  18.0685010  31.8497680  64.6283980
  18.2626960  31.1141300  63.3195800  14.2617760  34.5094290  68.8059730
  13.8248750  34.6895090  69.6383880  14.8295440  35.2668910  68.6641450
  29.8979940  34.0111290  73.0937040  29.2981930  34.0703850  72.3500960
  30.0273840  33.0716270  73.2233890  31.1381390  31.7529110  58.4306750
  30.3074350  31.8205760  58.9013980  31.3153220  32.6433230  58.1273610
  30.5937850  28.4976590  60.9340950  31.3556760  29.0673240  61.0400640
  30.6092220  27.9303790  61.7049260  14.0942190  27.0214520  65.1648610
  13.4391030  26.7526160  64.5208310  14.9320140  26.9119000  64.7150590
  31.5997820  29.3526690  65.7782880  31.9706650  28.5694010  65.3718850
  32.2399750  30.0415790  65.6000180  28.5831580  30.7363270  71.1913200
  27.7691420  31.1660430  71.4538990  28.9905780  31.3481680  70.5782250
  30.6457020  28.7910960  58.0913470  30.9205860  29.6989840  57.9632690
  30.4567760  28.7273490  59.0275460  27.0432630  21.8155810  59.3867100
  27.4617510  21.6286790  58.5463760  26.7368690  20.9634860  59.6970030
  30.5422360  26.7279950  63.0842900  30.1665960  25.9607880  62.6524190
  29.8125480  27.1102650  63.5717830  15.1318120  27.4067090  69.7051950
  15.4991160  27.3194490  70.5847970  14.5628940  26.6433640  69.6058810
  29.9321980  25.8751470  72.7182420  29.7008070  25.6464220  71.8180370
  30.1926530  26.7951020  72.6727310  14.6834120  24.3176180  73.6110370
  13.7890170  24.2842940  73.9504080  15.2231670  24.5162970  74.3761620
  28.3710050  21.1007900  75.4962120  29.2480230  21.1091300  75.8796120
  28.3830890  20.3638740  74.8854470  13.3080270  24.2313450  61.1073940
  12.4044350  24.4943650  60.9325600  13.7920890  24.5024620  60.3273900
  29.8173320  24.9537440  66.3850140  30.3410800  24.4600090  65.7540310
  30.4032740  25.0887800  67.1297710  29.9963040  25.0377310  69.9069690
  29.0465750  25.0040850  70.0214680  30.1776050  25.9477420  69.6719460
  15.8507480  23.2878990  59.0168320  16.5599180  22.8662210  58.5315600
  15.1347420  23.3554220  58.3851670  15.4981640  19.3418320  58.0570970
  16.2209770  19.8827260  58.3752190  15.7706160  19.0681740  57.1812510
  29.3073290  24.2110790  62.3242550  29.8032410  23.9781660  63.1091430
  29.1089360  23.3722630  61.9080190  15.1873830  18.5924510  67.9593590
  15.8350020  18.0421890  67.5188750  15.6075670  18.8467660  68.7809400
  30.7360450  22.8471740  64.8580230  30.6259730  22.6927780  65.7962500
  31.4968040  22.3192680  64.6155640  29.0826170  18.7865870  71.3163230
  29.7198390  19.4000010  71.6822420  29.2301060  18.8226530  70.3712460
  31.6250720  20.6779660  58.0986370  32.5500030  20.5460840  57.8904660
  31.6026510  20.7572480  59.0522820  31.6989210  21.4490320  60.7243080
  30.9040710  21.3835440  61.2535990  31.9032490  22.3840960  60.7128430
  28.6407630  35.4881870  64.7181470  29.2366700  35.1666440  64.0415890
  28.8985780  35.0153690  65.5094740  14.9405830  18.7480180  70.7018910
  14.5920650  19.2044000  71.4677090  14.6093530  17.8537310  70.7841340
  16.5470200  31.9199780  74.8672100  16.5039830  31.5492690  75.7486560
  16.6781210  32.8577350  75.0073920  20.2476230  33.4759370  70.4681820
  20.0067590  33.7433930  69.5812340  21.1878870  33.6465100  70.5232680
  22.4530650  19.9392060  74.2238330  22.3919540  20.5313890  74.9733740
  23.3931030  19.8318020  74.0788590  25.0905210  19.5962120  73.8630620
  25.7045620  19.9141410  73.2011700  25.6354770  19.1110710  74.4826480
  31.5080390  35.4953750  71.2692460  31.0138670  35.8922620  70.5519590
  30.8993680  34.8702960  71.6629740  15.6126470  18.2756380  73.9769680
  16.1609460  18.0944430  73.2135790  15.6781780  17.4850490  74.5125990
  16.3858230  34.8662030  71.9869880  15.7918550  34.7346730  72.7259920
  16.3782070  34.0300170  71.5211980  25.8313250  18.1594260  70.1899910
  24.9573090  18.4929370  69.9872840  25.7224000  17.6867440  71.0151780
  26.7385230  20.3665130  71.5741630  26.4098590  19.5516890  71.1943360
  27.6867530  20.3234940  71.4507320  29.1919840  36.1377170  68.5479200
  28.7322810  36.8892980  68.1737220  28.5632300  35.4183640  68.4894000
  16.0170460  32.2320410  70.9377920  15.2904520  31.6125700  70.8703870
  16.0779610  32.6261020  70.0676000  19.6215560  34.4465410  67.7227330
  20.1380580  33.8352770  67.1975590  20.2712940  34.9494190  68.2138340
  22.3611060  35.3373900  68.5496310  22.6488870  35.0828200  67.6729320
  22.8734280  34.7851260  69.1401880  23.5788070  19.0764100  69.1292820
  22.7959860  19.5509600  69.4089580  23.2851000  18.1718930  69.0206000
  28.1309140  19.7787200  67.1741910  28.5717230  19.7232300  66.3263510
  27.8616730  20.6945210  67.2452090  29.9947710  19.4102440  65.1850730
  29.9336110  18.4663660  65.0381750  30.7739740  19.5182530  65.7304190
  14.3000460  35.5494800  64.1474680  14.1322500  34.9165480  64.8456570
  13.4334970  35.7554200  63.7968870  14.9228480  19.3811580  61.6506540
  15.6807840  19.4940460  61.0770570  14.4605650  20.2180780  61.6049970
  21.4642290  21.4950850  64.6408850  20.6516800  21.1207740  64.3004730
  21.9683930  20.7395930  64.9430040  25.9667270  18.1593300  65.8791920
  26.5696640  18.7313510  66.3540440  25.2260260  18.7232740  65.6565820
  29.1101870  18.5614860  61.1532200  29.3052500  19.4598310  61.4199630
  28.3231740  18.3301940  61.6465150  15.9063160  34.2428030  61.5924820
  15.3810780  34.6236060  60.8886780  15.8307740  34.8678800  62.3134530
  17.2953630  19.9075630  60.1908510  17.8246390  19.1205430  60.0616460
  17.9281950  20.5866820  60.4244040  19.4891470  19.6450770  63.2453900
  18.8594210  18.9438080  63.4124030  18.9496610  20.4054900  63.0287060
  22.4283420  36.2590000  75.9164510  23.3550730  36.0234270  75.9600470
  22.4133850  37.0862000  75.4350540  30.6628480  35.8015570  62.9138760
  30.8380670  35.1153310  62.2699680  29.9650050  36.3262620  62.5215430
  19.6147030  18.9234750  75.6806390  19.3331300  19.4268350  74.9167210
  19.9966730  18.1256500  75.3148520  18.5056130  36.1910410  60.4674070
  19.2374950  35.9069690  59.9197960  18.7649800  35.9523690  61.3573450
  17.6670920  32.3075140  60.4720400  17.0379800  32.7760240  61.0206230
  17.7818750  31.4624360  60.9066590  25.1220640  26.3580800  46.6221600
  25.0414690  25.4435410  46.3513310  24.7085060  26.8547870  45.9161310
  23.2538680  28.1359820  48.5030870  22.4780780  27.6560260  48.7929440
  23.9051610  27.4565470  48.3287030  17.2704510  28.4479630  49.3806630
  16.4389390  28.1928340  49.7803140  17.8785490  28.5190400  50.1164550
  27.2746110  32.5420010  47.2830000  26.8127640  31.7707250  47.6117170
  28.0871660  32.5686080  47.7882450  17.2505770  32.4819720  49.5764650
  17.5533810  31.5917460  49.3974870  17.9949360  33.0389940  49.3486900
  15.6796460  23.4081520  43.1649020  14.7913160  23.7497490  43.0628900
  15.9637650  23.2081840  42.2729850  13.6429470  26.0087170  49.0488720
  14.2145580  25.2409370  49.0492360  13.6431010  26.3075930  48.1395330
  23.5009420  34.8278020  46.9033990  22.8820860  35.2835520  46.3328430
  24.3561200  34.9829480  46.5023690  22.6947670  30.8117010  48.5101030
  22.6255950  29.8706950  48.3490160  23.4567530  30.9018420  49.0823600
  14.8854340  21.4171530  50.8357650  14.7057180  20.5197280  51.1160410
  14.4834420  21.9643400  51.5104600  23.7252840  23.6187390  48.7369960
  24.1017660  22.7459270  48.6243630  23.6272350  23.9546090  47.8460400
  17.8557850  21.9913020  44.1987400  17.9624600  22.8916750  44.5056160
  16.9450210  21.9430990  43.9082050  27.5076960  21.1137830  45.6698300
  28.3286580  20.6234400  45.7123780  27.5411040  21.7035490  46.4230140
  15.5041010  23.9132030  49.4439990  16.1851120  24.1770400  50.0627390
  15.1889060  23.0732900  49.7778000  19.6965580  24.9599390  48.5312580
  20.2043800  25.4580360  49.1717600  20.2278820  24.1834590  48.3551940
  31.7976510  23.1304580  52.2341930  31.0928680  23.5186290  51.7157040
  32.0634430  23.8254870  52.8362860  17.9801680  19.5997950  52.7976000
  17.9820120  20.1170340  51.9921900  17.1505990  19.1228130  52.7745930
  24.3672770  29.7117260  44.2965900  23.7490040  30.1766710  43.7328620
  24.8796020  30.4044740  44.7135410  19.2304530  29.2393130  50.9749500
  18.8973910  29.8662050  51.6170570  19.4071210  29.7655010  50.1951170
  27.7438440  23.0538210  48.4425840  27.0394010  23.3423100  49.0228950
  28.1050600  23.8638320  48.0825400  17.6617010  21.3107910  50.8046450
  18.0033820  22.1549960  50.5100320  16.7232820  21.4591650  50.9211790
  18.4423630  31.2073930  52.7898680  19.0597630  31.8825010  52.5083130
  17.5816750  31.6161910  52.6986180  13.7355970  30.3973790  41.6705530
  13.3583950  30.8860890  40.9390430  13.9929040  31.0699070  42.3012060
  29.3601220  32.6713340  50.7053320  28.6764740  33.3412450  50.6969990
  29.8995510  32.8693990  49.9398180  30.8125360  22.4993000  48.8335050
  29.8650270  22.5331980  48.9650480  31.1375350  23.3131950  49.2184410
  21.3444900  18.7990180  47.1291040  21.6519880  18.2437070  46.4126540
  20.4145600  18.9334640  46.9464030  26.8959960  34.5157470  49.4198500
  26.9087120  34.1119760  48.5520760  26.3435180  35.2904760  49.3159930
  28.1905380  31.2373690  44.5088670  28.0801710  30.2948020  44.6338090
  28.1873630  31.5989330  45.3951430  26.2945400  29.4187310  50.7481110
  26.7114190  29.2047420  49.9134570  27.0185220  29.6760100  51.3189730
  23.7325660  26.8639010  43.8651160  22.8054940  26.7976390  44.0939630
  23.8850480  27.8019140  43.7506400  23.7194740  23.1356010  40.8618320
  22.7798410  23.2969970  40.9470780  24.0378000  23.8541690  40.3154310
  30.2407500  27.8174530  50.8397350  29.4126130  27.8867620  50.3647480
  30.8357980  28.4028840  50.3713180  27.7622950  28.4259310  44.3686410
  27.1435370  28.0878860  43.7212710  27.7447400  27.7819070  45.0765600
  27.2049510  24.6043850  51.7852220  26.7920690  25.4297560  52.0392210
  26.4725460  24.0188890  51.5928580  19.3382300  27.3903750  46.6470890
  18.9339300  26.6781000  46.1516790  19.4245420  27.0456990  47.5358930
  19.8064000  31.0771310  48.8110100  19.5092290  30.4716780  48.1317880
  20.7563820  31.1148620  48.6999460  18.0510920  24.1646960  50.4269930
  18.6025510  24.2742300  49.6523180  18.5654430  24.5384560  51.1425160
  27.8949610  34.6503180  52.4733200  27.4180170  35.4575370  52.2805810
  27.2111400  33.9981510  52.6259410  18.8982430  30.8153000  55.4617900
  18.0010960  31.0392970  55.7091300  18.9235300  30.9387940  54.5129300
  25.9387650  27.6646120  41.3759160  26.3780930  26.8268550  41.2296980
  26.6516070  28.2975520  41.4623300  17.7253650  27.6866320  54.0375270
  17.5861420  28.5589120  54.4062670  16.8435010  27.3439130  53.8923210
  24.0483030  32.6042190  45.3440400  24.4878940  33.3466520  44.9295790
  23.9869920  32.8468760  46.2679360  19.5234000  33.6288020  56.2460420
  19.4949430  34.0330970  55.3788850  19.3598970  32.6998380  56.0832020
  29.5204790  18.9188930  39.6900200  29.2077450  19.0115760  40.5899270
  30.2817260  19.4969960  39.6397630  16.0386930  26.2848730  44.1477540
  15.9184530  27.0110820  43.5358810  15.7287820  25.5151640  43.6705450
  31.4748820  34.4115120  57.5424590  31.9508540  34.8898010  58.2213670
  32.0955980  34.3432610  56.8170090  13.6772300  29.4563870  49.9546180
  13.7552720  29.5912640  49.0101900  14.2913980  28.7479760  50.1474300
  14.9219930  31.1564060  46.3652360  14.5148010  31.2978650  45.5105960
  15.8132940  30.8724220  46.1623570  30.8782070  31.6027970  54.7024600
  31.0045130  31.3639850  53.7841780  30.9203450  30.7712510  55.1746680
  24.7398810  35.3055970  53.2719410  25.2543480  35.2163980  54.0741840
  23.8967890  35.6515670  53.5647320  26.7153210  35.5911310  42.7003410
  26.5554350  35.3014250  43.5985240  26.5499920  34.8151440  42.1648640
  19.1941590  35.3709840  44.4775030  19.0184070  34.4545380  44.2642830
  18.3397330  35.7297130  44.7172830  26.4179340  33.0998870  41.2601410
  25.7244500  33.0976160  40.6003690  27.1602200  32.6758190  40.8295580
  25.9829270  34.7261580  45.3349900  26.4386220  33.9450960  45.6488520
  26.3221790  35.4368400  45.8791080  30.7306080  23.6560430  55.6674340
  30.1150350  24.1640100  55.1389800  30.4102500  22.7558760  55.6100280
  13.7331820  30.4978040  52.4940640  13.8962860  30.0283400  51.6760010
  14.1984270  29.9901600  53.1589480  18.5050590  19.6283800  47.5301210
  18.0618740  20.4093340  47.1985730  19.0635580  19.9513690  48.2372150
  22.7920400  22.4952320  53.1336530  22.3299770  22.7035340  53.9456470
  22.3898510  21.6811670  52.8307200  27.7924910  23.7161270  54.2633190
  26.9418500  23.4167020  54.5842260  27.6326700  23.9603280  53.3517010
  24.8874620  25.2163020  56.3631980  25.2128030  24.3826770  56.0234210
  25.6754950  25.7391540  56.5110310  21.6209410  19.2494500  42.4107040
  20.9963590  19.2454370  43.1360350  21.5339530  18.3825460  42.0143010
  20.5426490  20.1731130  49.3890810  20.8398820  21.0793960  49.3082830
  21.0912050  19.6849910  48.7750380  18.2964810  24.7517370  45.2582460
  18.0705730  24.5354540  46.1629080  17.5157340  25.1845830  44.9128430
  25.5262570  24.7580740  43.8573110  24.9271460  25.4816540  43.6736730
  26.0742180  24.6957520  43.0749560  20.7364020  25.6502950  55.9242730
  20.6407620  24.7097680  55.7743130  21.5796000  25.8718020  55.5290800
  24.1327440  23.3944280  45.8876390  24.5257010  23.7116480  45.0745080
  24.4944290  22.5156160  46.0020910  15.8674560  22.0616620  54.0776510
  15.4737950  22.9091830  54.2849290  15.1792960  21.4242990  54.2685150
  22.4419610  22.1451590  57.1473250  21.7517930  21.9523790  57.7819340
  23.1851910  22.4286230  57.6797550  13.1691610  19.9845080  48.1106590
  12.8804660  20.5547940  48.8231570  13.9137370  19.5049530  48.4737820
  13.3561840  23.9265200  39.3209310  13.2736510  24.8695960  39.4624300
  13.0044900  23.7840110  38.4421660  24.7182580  25.9850030  49.9827170
  23.9863700  26.4936840  50.3317270  24.3206920  25.1680010  49.6815950
  21.1559970  22.6604230  48.3879660  21.1596030  22.2194180  47.5384200
  22.0511090  22.9821560  48.4951480  17.0062350  22.5430720  47.3473870
  16.6662400  23.0205950  48.1040920  16.2439670  22.0895840  46.9874970
  21.2180120  23.6616310  41.3786420  21.3392940  23.6202790  42.3272240
  20.8328630  24.5240460  41.2233150  25.1808490  21.4383710  49.3950110
  25.1981230  21.8892360  50.2391960  24.9324070  20.5389350  49.6083550
  20.2301620  25.9717450  40.7769720  19.6618520  25.5235700  40.1505630
  20.9390620  26.3310230  40.2434870  28.6079240  18.8515890  55.2336490
  28.9325010  18.1205550  55.7594470  28.6435750  18.5329530  54.3317480
  15.3070800  29.8729470  54.6536450  14.9225590  29.2323140  55.2519410
  15.6182990  30.5765590  55.2231180  21.4567940  26.7206010  50.1345070
  21.8238070  26.2464580  50.8806410  21.2673000  27.5947580  50.4753410
  14.3208430  21.4649700  46.2638540  14.0355350  21.1005370  47.1017160
  14.2587290  20.7330160  45.6501680  19.2467310  25.7614650  52.4529280
  18.9424380  26.6406630  52.6779640  20.2013770  25.8214440  52.4886720
  17.7749100  29.9675640  43.0496130  17.0011360  29.4273260  42.8894850
  18.5043730  29.4482250  42.7113890  28.5337080  28.9641000  48.8422520
  29.2536200  29.4596290  48.4518630  28.3318900  28.2858890  48.1976390
  23.9947020  20.3578960  42.9851910  23.1811630  19.8592130  42.9097220
  23.8008970  21.1977210  42.5688260  23.9155880  29.0350060  54.7291520
  23.8493190  28.1145730  54.4749110  23.2861020  29.1325500  55.4436160
  26.7095410  24.7298610  41.2814070  27.5975030  25.0415840  41.1065410
  26.6800500  23.8570860  40.8894650  17.8186500  29.6356020  46.6874940
  18.3365170  28.8324280  46.6331830  17.3670520  29.5735160  47.5291770
  22.7056000  30.9022300  41.9602240  23.0471700  31.6464530  41.4645560
  21.8768710  31.2153420  42.3227070  15.3031040  26.6017390  53.6000640
  14.9445980  27.2671240  54.1873980  15.0085600  25.7700940  53.9713260
  18.5044160  27.0601630  56.4840190  18.2044300  27.2058810  55.5868010
  19.2755400  26.5006920  56.3913580  23.8472610  31.8570630  54.4795320
  23.8617150  30.9251590  54.2614230  23.1397710  31.9430390  55.1185090
  28.9809680  26.0410450  40.7493930  28.8973400  26.4724670  39.8990370
  29.7003870  26.5008800  41.1820750  30.0583820  28.4977970  53.8263900
  29.3332010  29.0906750  53.6293290  30.5859280  28.4901510  53.0277270
  30.0096930  32.8952710  43.4776060  29.3673090  32.2408330  43.7519780
  29.6227590  33.3007800  42.7016730  25.5883410  30.2238140  47.3247750
  25.9407230  29.6266270  46.6649120  24.7045740  29.8982370  47.4956000
  21.6746690  30.9835830  44.7318160  22.3617820  31.5305040  45.1125750
  20.8879110  31.5276560  44.7667770  13.8139090  26.6008650  40.2235240
  14.6833940  26.8833450  40.5071160  13.3229410  27.4144520  40.1084050
  20.9773900  27.9881860  44.3443520  21.4336680  28.7987110  44.5703710
  20.6262110  27.6705000  45.1762010  23.2806510  33.4988200  51.5735820
  23.9248730  33.7047580  52.2509240  23.6435950  32.7376600  51.1206670
  16.8785680  18.3319510  44.8166040  16.7500310  18.3237410  45.7650960
  16.0547700  18.6702600  44.4657050  24.5538590  31.5020550  50.2913270
  25.1960820  30.8013710  50.4045440  25.0787940  32.2818990  50.1110160
  28.3994310  31.7869170  40.0152410  28.1731890  31.0699610  40.6077050
  28.0090510  31.5381610  39.1774160  26.3276210  32.3015450  53.4949330
  26.6632450  32.8882140  54.1727250  25.4076550  32.1708160  53.7247120
  14.1810340  35.8136030  40.7896870  14.5407980  36.4125370  40.1354140
  14.0402680  36.3595920  41.5631900  13.8779610  20.0910630  54.2772740
  13.1638130  20.2907550  54.8825350  14.2974650  19.3150200  54.6487540
  27.9810560  29.7041110  41.6766570  27.6932260  30.1653800  42.4644450
  28.7762730  29.2438880  41.9450790  14.1652200  34.0790890  55.2639270
  14.2743320  33.1385630  55.1234660  13.5132760  34.3445640  54.6153000
  22.1564790  32.3506780  56.6637390  21.8361660  31.6316020  57.2083080
  21.4823150  33.0261850  56.7373450  20.1978960  33.1967230  41.6070540
  20.1889060  33.9296920  40.9915050  19.2777320  32.9498810  41.6997500
  15.7985600  28.4182120  42.3517300  15.1913550  29.1581020  42.3612600
  16.2734950  28.5081480  41.5255500  25.3718390  22.5832940  52.0274190
  25.7399210  21.7628150  52.3553760  24.5116590  22.6434830  52.4429840
  28.7380420  21.5389880  42.8361750  28.1093580  21.6435550  42.1219980
  28.2432340  21.7586660  43.6255630  23.1838560  33.2595470  40.2695730
  23.2850540  33.0559460  39.3397710  22.2840300  33.0053750  40.4743510
  20.7064450  23.8175830  44.2519630  19.9980600  24.2862170  44.6933240
  20.9908930  23.1597840  44.8864820  22.3320380  25.2372530  52.2512160
  22.8305630  25.7118350  52.9164010  22.4743330  24.3136050  52.4582190
  24.7379880  20.5426490  45.6915420  24.6147660  20.5612620  44.7424930
  25.6864440  20.5905430  45.8113820  21.8256670  35.7781790  44.9643400
  22.0798170  35.7403180  44.0422770  20.8769150  35.6515120  44.9571650
  18.9099470  22.1260910  41.6270340  19.7590000  22.5631060  41.5610530
  18.5430740  22.4381170  42.4542400  29.5387240  21.4540490  53.0940550
  29.0360840  22.1945890  53.4334360  30.3543900  21.8424490  52.7777340
  27.8309250  26.6973670  46.5401910  26.8899390  26.7123900  46.7149600
  28.1453320  25.9109630  46.9862210  17.8090890  28.3793270  40.1005870
  18.5754160  28.2674630  40.6631300  17.8865580  27.6831240  39.4482640
  16.5037650  25.8118340  40.7838760  16.5841240  24.8645850  40.8956160
  17.3957400  26.1425220  40.8899420  29.8334830  33.8682520  48.2156170
  29.9582250  34.6913690  48.6879980  30.7000390  33.6573250  47.8680320
  17.3052360  35.9613730  47.8873300  18.0414840  35.4129190  48.1581870
  17.6893280  36.8269740  47.7479290  14.1897840  32.0287300  43.7614810
  13.2637620  32.2708440  43.7520220  14.6554270  32.8561560  43.6399560
  16.3110640  35.1459800  57.0758880  17.1123370  35.4671850  57.4894280
  15.7962460  34.7855380  57.7978790  20.4154670  35.1344040  39.7098870
  21.2083280  35.4232870  39.2580660  19.8959020  34.7036210  39.0311350
  25.1475270  31.2539670  57.0234290  24.5413430  31.2771270  56.2830040
  24.8429380  30.5222710  57.5601540  26.5775640  34.9819960  55.6343700
  27.5297390  34.8977980  55.5843940  26.4303860  35.6461670  56.3077490
  29.4684840  34.3614170  41.1335610  29.1826350  33.9479310  40.3189790
  29.2704390  35.2901880  41.0136130  14.0308450  27.6333260  56.0194930
  14.5347470  27.0540540  56.5911160  13.2915870  27.9173490  56.5571300
  20.9332070  30.3547450  39.5741220  20.8282710  29.7399800  40.3002600
  20.7656290  29.8313340  38.7904230  21.0846390  29.0404250  55.5530450
  20.3192060  29.6089250  55.4685120  21.2662350  28.7480460  54.6598680
  24.1734800  29.4167480  40.1783210  23.6244900  29.8636780  40.8225950
  24.7954060  28.9116730  40.7020880  28.2269740  30.7709580  56.1105470
  28.9679210  31.1085340  55.6072930  27.4642420  30.9401640  55.5575240
  16.0631530  25.7762850  56.9145000  16.1036870  25.4776720  57.8230230
  16.9177030  26.1770460  56.7552520  19.8409920  28.3758400  42.0748510
  20.2626340  28.2098270  42.9179900  19.9660760  27.5658630  41.5803650
  18.0037340  24.3554950  54.8819490  17.4733800  23.8645900  54.2542830
  18.6725410  24.7839150  54.3477420  22.3537560  27.3996010  39.3225610
  22.8743220  26.6845030  38.9566760  23.0005960  28.0381880  39.6226120
  26.9015400  28.8224410  54.6460680  27.3156420  28.9769490  55.4951100
  25.9666400  28.9479630  54.8086460  27.3737570  26.1620570  56.6499830
  27.9558340  25.4072890  56.5620310  27.5499340  26.6928010  55.8731310
  18.4909640  21.3217320  54.9616780  18.3966510  20.7038070  54.2367650
  17.9107030  22.0483610  54.7346690  21.2571080  19.8790560  51.9944170
  20.8088380  19.9014820  51.1489720  20.6236280  19.4809580  52.5914470
  21.6630630  28.7744890  52.6156610  22.0818740  29.6177620  52.4432850
  20.7439260  28.9116930  52.3863390  23.9994530  26.5061070  53.9994450
  24.1190740  25.9102210  54.7389290  24.8588530  26.5430760  53.5795750
  26.3382430  27.0598260  52.5756960  25.8117650  27.5840880  51.9722100
  26.6813770  27.6925650  53.2066690  18.7368820  24.4491630  39.0206670
  18.5357880  23.5858990  39.3820010  18.5660870  24.3624990  38.0828270
  19.5138050  35.0797900  53.7314340  18.9759140  35.8043960  53.4123040
  19.7672010  34.6028240  52.9411680  20.7663300  23.0482420  55.2570270
  21.3562990  22.7398270  55.9448090  19.9483540  22.5762170  55.4130170
  25.5856730  22.6648230  55.4903290  24.8972250  22.0029770  55.4253280
  26.3062750  22.2186500  55.9351750  26.2157130  19.2599860  41.5493550
  26.4959420  18.4167760  41.9052970  25.4422860  19.4922970  42.0632300
  17.5351620  21.5492250  39.0084550  17.8377520  21.5559680  38.1003700
  18.2746210  21.1990110  39.5052210  22.3700260  36.3149110  53.9900990
  22.2958960  37.2184250  54.2973360  21.4679100  35.9961010  53.9623060
  20.7536550  20.4926870  39.9940750  20.4058550  19.8150860  39.4143200
  20.9549320  20.0316380  40.8084140  22.9185590  35.4807620  41.6127350
  23.8136380  35.8192590  41.6346110  22.9503220  34.7587030  40.9851630
  16.5581750  30.8534670  39.8414350  16.9956620  31.3964340  40.4971930
  17.0429480  30.0281620  39.8510690  13.7727550  33.6423700  47.2934610
  14.1030560  32.7744760  47.0613250  14.2018550  33.8482220  48.1239570
  18.3689470  31.9732710  44.9536580  18.0685010  31.8497680  45.8540490
  18.2626960  31.1141300  44.5452310  14.2617760  34.5094290  50.0316240
  13.8248750  34.6895090  50.8640390  14.8295440  35.2668910  49.8897960
  29.8979940  34.0111290  54.3193550  29.2981930  34.0703850  53.5757470
  30.0273840  33.0716270  54.4490400  31.1381390  31.7529110  39.6563260
  30.3074350  31.8205760  40.1270490  31.3153220  32.6433230  39.3530120
  30.5937850  28.4976590  42.1597460  31.3556760  29.0673240  42.2657150
  30.6092220  27.9303790  42.9305770  14.0942190  27.0214520  46.3905120
  13.4391030  26.7526160  45.7464820  14.9320140  26.9119000  45.9407100
  31.5997820  29.3526690  47.0039390  31.9706650  28.5694010  46.5975360
  32.2399750  30.0415790  46.8256690  28.5831580  30.7363270  52.4169710
  27.7691420  31.1660430  52.6795500  28.9905780  31.3481680  51.8038760
  30.6457020  28.7910960  39.3169980  30.9205860  29.6989840  39.1889200
  30.4567760  28.7273490  40.2531970  27.0432630  21.8155810  40.6123610
  27.4617510  21.6286790  39.7720270  26.7368690  20.9634860  40.9226540
  30.5422360  26.7279950  44.3099410  30.1665960  25.9607880  43.8780700
  29.8125480  27.1102650  44.7974340  15.1318120  27.4067090  50.9308460
  15.4991160  27.3194490  51.8104480  14.5628940  26.6433640  50.8315320
  29.9321980  25.8751470  53.9438930  29.7008070  25.6464220  53.0436880
  30.1926530  26.7951020  53.8983820  14.6834120  24.3176180  54.8366880
  13.7890170  24.2842940  55.1760590  15.2231670  24.5162970  55.6018130
  28.3710050  21.1007900  56.7218630  29.2480230  21.1091300  57.1052630
  28.3830890  20.3638740  56.1110980  13.3080270  24.2313450  42.3330450
  12.4044350  24.4943650  42.1582110  13.7920890  24.5024620  41.5530410
  29.8173320  24.9537440  47.6106650  30.3410800  24.4600090  46.9796820
  30.4032740  25.0887800  48.3554220  29.9963040  25.0377310  51.1326200
  29.0465750  25.0040850  51.2471190  30.1776050  25.9477420  50.8975970
  15.8507480  23.2878990  40.2424830  16.5599180  22.8662210  39.7572110
  15.1347420  23.3554220  39.6108180  15.4981640  19.3418320  39.2827480
  16.2209770  19.8827260  39.6008700  15.7706160  19.0681740  38.4069020
  29.3073290  24.2110790  43.5499060  29.8032410  23.9781660  44.3347940
  29.1089360  23.3722630  43.1336700  15.1873830  18.5924510  49.1850100
  15.8350020  18.0421890  48.7445260  15.6075670  18.8467660  50.0065910
  30.7360450  22.8471740  46.0836740  30.6259730  22.6927780  47.0219010
  31.4968040  22.3192680  45.8412150  29.0826170  18.7865870  52.5419740
  29.7198390  19.4000010  52.9078930  29.2301060  18.8226530  51.5968970
  31.6250720  20.6779660  39.3242880  32.5500030  20.5460840  39.1161170
  31.6026510  20.7572480  40.2779330  31.6989210  21.4490320  41.9499590
  30.9040710  21.3835440  42.4792500  31.9032490  22.3840960  41.9384940
  14.9405830  18.7480180  51.9275420  14.5920650  19.2044000  52.6933600
  14.6093530  17.8537310  52.0097850  16.5470200  31.9199780  56.0928610
  16.5039830  31.5492690  56.9743070  16.6781210  32.8577350  56.2330430
  20.2476230  33.4759370  51.6938330  20.0067590  33.7433930  50.8068850
  21.1878870  33.6465100  51.7489190  22.4530650  19.9392060  55.4494840
  22.3919540  20.5313890  56.1990250  23.3931030  19.8318020  55.3045100
  25.0905210  19.5962120  55.0887130  25.7045620  19.9141410  54.4268210
  25.6354770  19.1110710  55.7082990  31.5080390  35.4953750  52.4948970
  31.0138670  35.8922620  51.7776100  30.8993680  34.8702960  52.8886250
  15.6126470  18.2756380  55.2026190  16.1609460  18.0944430  54.4392300
  15.6781780  17.4850490  55.7382500  16.3858230  34.8662030  53.2126390
  15.7918550  34.7346730  53.9516430  16.3782070  34.0300170  52.7468490
  25.8313250  18.1594260  51.4156420  24.9573090  18.4929370  51.2129350
  25.7224000  17.6867440  52.2408290  26.7385230  20.3665130  52.7998140
  26.4098590  19.5516890  52.4199870  27.6867530  20.3234940  52.6763830
  29.1919840  36.1377170  49.7735710  28.7322810  36.8892980  49.3993730
  28.5632300  35.4183640  49.7150510  16.0170460  32.2320410  52.1634430
  15.2904520  31.6125700  52.0960380  16.0779610  32.6261020  51.2932510
  19.6215560  34.4465410  48.9483840  20.1380580  33.8352770  48.4232100
  20.2712940  34.9494190  49.4394850  22.3611060  35.3373900  49.7752820
  22.6488870  35.0828200  48.8985830  22.8734280  34.7851260  50.3658390
  23.5788070  19.0764100  50.3549330  22.7959860  19.5509600  50.6346090
  23.2851000  18.1718930  50.2462510  28.1309140  19.7787200  48.3998420
  28.5717230  19.7232300  47.5520020  27.8616730  20.6945210  48.4708600
  29.9947710  19.4102440  46.4107240  29.9336110  18.4663660  46.2638260
  30.7739740  19.5182530  46.9560700  14.3000460  35.5494800  45.3731190
  14.1322500  34.9165480  46.0713080  13.4334970  35.7554200  45.0225380
  14.9228480  19.3811580  42.8763050  15.6807840  19.4940460  42.3027080
  14.4605650  20.2180780  42.8306480  21.4642290  21.4950850  45.8665360
  20.6516800  21.1207740  45.5261240  21.9683930  20.7395930  46.1686550
  25.9667270  18.1593300  47.1048430  26.5696640  18.7313510  47.5796950
  25.2260260  18.7232740  46.8822330  29.1101870  18.5614860  42.3788710
  29.3052500  19.4598310  42.6456140  28.3231740  18.3301940  42.8721660
  15.9063160  34.2428030  42.8181330  15.3810780  34.6236060  42.1143290
  15.8307740  34.8678800  43.5391040  17.2953630  19.9075630  41.4165020
  17.8246390  19.1205430  41.2872970  17.9281950  20.5866820  41.6500550
  19.4891470  19.6450770  44.4710410  18.8594210  18.9438080  44.6380540
  18.9496610  20.4054900  44.2543570  22.4283420  36.2590000  57.1421020
  23.3550730  36.0234270  57.1856980  22.4133850  37.0862000  56.6607050
  19.6147030  18.9234750  56.9062900  19.3331300  19.4268350  56.1423720
  19.9966730  18.1256500  56.5405030  18.5056130  36.1910410  41.6930580
  19.2374950  35.9069690  41.1454470  18.7649800  35.9523690  42.5829960
  17.6670920  32.3075140  41.6976910  17.0379800  32.7760240  42.2462740
  17.7818750  31.4624360  42.1323100  26.2162490  18.3388330  57.4843370
  26.1027940  18.6582940  58.3794890  27.0332230  18.7400840  57.1880650
  28.9960980  35.4859860  56.9662060  29.7886300  34.9909090  56.7588020
  29.2894130  36.1650000  57.5737670  25.1220640  26.3580800  27.8478110
  25.0414690  25.4435410  27.5769820  24.7085060  26.8547870  27.1417820
  23.2538680  28.1359820  29.7287380  22.4780780  27.6560260  30.0185950
  23.9051610  27.4565470  29.5543540  17.2704510  28.4479630  30.6063140
  16.4389390  28.1928340  31.0059650  17.8785490  28.5190400  31.3421060
  27.2746110  32.5420010  28.5086510  26.8127640  31.7707250  28.8373680
  28.0871660  32.5686080  29.0138960  17.2505770  32.4819720  30.8021160
  17.5533810  31.5917460  30.6231380  17.9949360  33.0389940  30.5743410
  15.6796460  23.4081520  24.3905530  14.7913160  23.7497490  24.2885410
  15.9637650  23.2081840  23.4986360  13.6429470  26.0087170  30.2745230
  14.2145580  25.2409370  30.2748870  13.6431010  26.3075930  29.3651840
  23.5009420  34.8278020  28.1290500  22.8820860  35.2835520  27.5584940
  24.3561200  34.9829480  27.7280200  22.6947670  30.8117010  29.7357540
  22.6255950  29.8706950  29.5746670  23.4567530  30.9018420  30.3080110
  14.8854340  21.4171530  32.0614160  14.7057180  20.5197280  32.3416920
  14.4834420  21.9643400  32.7361110  23.7252840  23.6187390  29.9626470
  24.1017660  22.7459270  29.8500140  23.6272350  23.9546090  29.0716910
  17.8557850  21.9913020  25.4243910  17.9624600  22.8916750  25.7312670
  16.9450210  21.9430990  25.1338560  27.5076960  21.1137830  26.8954810
  28.3286580  20.6234400  26.9380290  27.5411040  21.7035490  27.6486650
  15.5041010  23.9132030  30.6696500  16.1851120  24.1770400  31.2883900
  15.1889060  23.0732900  31.0034510  19.6965580  24.9599390  29.7569090
  20.2043800  25.4580360  30.3974110  20.2278820  24.1834590  29.5808450
  31.7976510  23.1304580  33.4598440  31.0928680  23.5186290  32.9413550
  32.0634430  23.8254870  34.0619370  17.9801680  19.5997950  34.0232510
  17.9820120  20.1170340  33.2178410  17.1505990  19.1228130  34.0002440
  24.3672770  29.7117260  25.5222410  23.7490040  30.1766710  24.9585130
  24.8796020  30.4044740  25.9391920  19.2304530  29.2393130  32.2006010
  18.8973910  29.8662050  32.8427080  19.4071210  29.7655010  31.4207680
  27.7438440  23.0538210  29.6682350  27.0394010  23.3423100  30.2485460
  28.1050600  23.8638320  29.3081910  17.6617010  21.3107910  32.0302960
  18.0033820  22.1549960  31.7356830  16.7232820  21.4591650  32.1468300
  18.4423630  31.2073930  34.0155190  19.0597630  31.8825010  33.7339640
  17.5816750  31.6161910  33.9242690  13.7355970  30.3973790  22.8962040
  13.3583950  30.8860890  22.1646940  13.9929040  31.0699070  23.5268570
  29.3601220  32.6713340  31.9309830  28.6764740  33.3412450  31.9226500
  29.8995510  32.8693990  31.1654690  30.8125360  22.4993000  30.0591560
  29.8650270  22.5331980  30.1906990  31.1375350  23.3131950  30.4440920
  21.3444900  18.7990180  28.3547550  21.6519880  18.2437070  27.6383050
  20.4145600  18.9334640  28.1720540  26.8959960  34.5157470  30.6455010
  26.9087120  34.1119760  29.7777270  26.3435180  35.2904760  30.5416440
  28.1905380  31.2373690  25.7345180  28.0801710  30.2948020  25.8594600
  28.1873630  31.5989330  26.6207940  26.2945400  29.4187310  31.9737620
  26.7114190  29.2047420  31.1391080  27.0185220  29.6760100  32.5446240
  23.7325660  26.8639010  25.0907670  22.8054940  26.7976390  25.3196140
  23.8850480  27.8019140  24.9762910  23.7194740  23.1356010  22.0874830
  22.7798410  23.2969970  22.1727290  24.0378000  23.8541690  21.5410820
  30.2407500  27.8174530  32.0653860  29.4126130  27.8867620  31.5903990
  30.8357980  28.4028840  31.5969690  27.7622950  28.4259310  25.5942920
  27.1435370  28.0878860  24.9469220  27.7447400  27.7819070  26.3022110
  27.2049510  24.6043850  33.0108730  26.7920690  25.4297560  33.2648720
  26.4725460  24.0188890  32.8185090  19.3382300  27.3903750  27.8727400
  18.9339300  26.6781000  27.3773300  19.4245420  27.0456990  28.7615440
  19.8064000  31.0771310  30.0366610  19.5092290  30.4716780  29.3574390
  20.7563820  31.1148620  29.9255970  18.0510920  24.1646960  31.6526440
  18.6025510  24.2742300  30.8779690  18.5654430  24.5384560  32.3681670
  27.8949610  34.6503180  33.6989710  27.4180170  35.4575370  33.5062320
  27.2111400  33.9981510  33.8515920  18.8982430  30.8153000  36.6874410
  18.0010960  31.0392970  36.9347810  18.9235300  30.9387940  35.7385810
  25.9387650  27.6646120  22.6015670  26.3780930  26.8268550  22.4553490
  26.6516070  28.2975520  22.6879810  17.7253650  27.6866320  35.2631780
  17.5861420  28.5589120  35.6319180  16.8435010  27.3439130  35.1179720
  24.0483030  32.6042190  26.5696910  24.4878940  33.3466520  26.1552300
  23.9869920  32.8468760  27.4935870  19.5234000  33.6288020  37.4716930
  19.4949430  34.0330970  36.6045360  19.3598970  32.6998380  37.3088530
  29.5204790  18.9188930  20.9156710  29.2077450  19.0115760  21.8155780
  30.2817260  19.4969960  20.8654140  16.0386930  26.2848730  25.3734050
  15.9184530  27.0110820  24.7615320  15.7287820  25.5151640  24.8961960
  31.4748820  34.4115120  38.7681100  31.9508540  34.8898010  39.4470180
  32.0955980  34.3432610  38.0426600  13.6772300  29.4563870  31.1802690
  13.7552720  29.5912640  30.2358410  14.2913980  28.7479760  31.3730810
  14.9219930  31.1564060  27.5908870  14.5148010  31.2978650  26.7362470
  15.8132940  30.8724220  27.3880080  30.8782070  31.6027970  35.9281110
  31.0045130  31.3639850  35.0098290  30.9203450  30.7712510  36.4003190
  24.7398810  35.3055970  34.4975920  25.2543480  35.2163980  35.2998350
  23.8967890  35.6515670  34.7903830  26.7153210  35.5911310  23.9259920
  26.5554350  35.3014250  24.8241750  26.5499920  34.8151440  23.3905150
  19.1941590  35.3709840  25.7031540  19.0184070  34.4545380  25.4899340
  18.3397330  35.7297130  25.9429340  26.4179340  33.0998870  22.4857920
  25.7244500  33.0976160  21.8260200  27.1602200  32.6758190  22.0552090
  25.9829270  34.7261580  26.5606410  26.4386220  33.9450960  26.8745030
  26.3221790  35.4368400  27.1047590  30.7306080  23.6560430  36.8930850
  30.1150350  24.1640100  36.3646310  30.4102500  22.7558760  36.8356790
  13.7331820  30.4978040  33.7197150  13.8962860  30.0283400  32.9016520
  14.1984270  29.9901600  34.3845990  18.5050590  19.6283800  28.7557720
  18.0618740  20.4093340  28.4242240  19.0635580  19.9513690  29.4628660
  22.7920400  22.4952320  34.3593040  22.3299770  22.7035340  35.1712980
  22.3898510  21.6811670  34.0563710  27.7924910  23.7161270  35.4889700
  26.9418500  23.4167020  35.8098770  27.6326700  23.9603280  34.5773520
  24.8874620  25.2163020  37.5888490  25.2128030  24.3826770  37.2490720
  25.6754950  25.7391540  37.7366820  21.6209410  19.2494500  23.6363550
  20.9963590  19.2454370  24.3616860  21.5339530  18.3825460  23.2399520
  20.5426490  20.1731130  30.6147320  20.8398820  21.0793960  30.5339340
  21.0912050  19.6849910  30.0006890  18.2964810  24.7517370  26.4838970
  18.0705730  24.5354540  27.3885590  17.5157340  25.1845830  26.1384940
  25.5262570  24.7580740  25.0829620  24.9271460  25.4816540  24.8993240
  26.0742180  24.6957520  24.3006070  20.7364020  25.6502950  37.1499240
  20.6407620  24.7097680  36.9999640  21.5796000  25.8718020  36.7547310
  24.1327440  23.3944280  27.1132900  24.5257010  23.7116480  26.3001590
  24.4944290  22.5156160  27.2277420  15.8674560  22.0616620  35.3033020
  15.4737950  22.9091830  35.5105800  15.1792960  21.4242990  35.4941660
  22.4419610  22.1451590  38.3729760  21.7517930  21.9523790  39.0075850
  23.1851910  22.4286230  38.9054060  13.1691610  19.9845080  29.3363100
  12.8804660  20.5547940  30.0488080  13.9137370  19.5049530  29.6994330
  13.3561840  23.9265200  20.5465820  13.2736510  24.8695960  20.6880810
  13.0044900  23.7840110  19.6678170  24.7182580  25.9850030  31.2083680
  23.9863700  26.4936840  31.5573780  24.3206920  25.1680010  30.9072460
  21.1559970  22.6604230  29.6136170  21.1596030  22.2194180  28.7640710
  22.0511090  22.9821560  29.7207990  17.0062350  22.5430720  28.5730380
  16.6662400  23.0205950  29.3297430  16.2439670  22.0895840  28.2131480
  21.2180120  23.6616310  22.6042930  21.3392940  23.6202790  23.5528750
  20.8328630  24.5240460  22.4489660  25.1808490  21.4383710  30.6206620
  25.1981230  21.8892360  31.4648470  24.9324070  20.5389350  30.8340060
  20.2301620  25.9717450  22.0026230  19.6618520  25.5235700  21.3762140
  20.9390620  26.3310230  21.4691380  28.6079240  18.8515890  36.4593000
  28.9325010  18.1205550  36.9850980  28.6435750  18.5329530  35.5573990
  15.3070800  29.8729470  35.8792960  14.9225590  29.2323140  36.4775920
  15.6182990  30.5765590  36.4487690  21.4567940  26.7206010  31.3601580
  21.8238070  26.2464580  32.1062920  21.2673000  27.5947580  31.7009920
  14.3208430  21.4649700  27.4895050  14.0355350  21.1005370  28.3273670
  14.2587290  20.7330160  26.8758190  19.2467310  25.7614650  33.6785790
  18.9424380  26.6406630  33.9036150  20.2013770  25.8214440  33.7143230
  17.7749100  29.9675640  24.2752640  17.0011360  29.4273260  24.1151360
  18.5043730  29.4482250  23.9370400  28.5337080  28.9641000  30.0679030
  29.2536200  29.4596290  29.6775140  28.3318900  28.2858890  29.4232900
  23.9947020  20.3578960  24.2108420  23.1811630  19.8592130  24.1353730
  23.8008970  21.1977210  23.7944770  23.9155880  29.0350060  35.9548030
  23.8493190  28.1145730  35.7005620  23.2861020  29.1325500  36.6692670
  26.7095410  24.7298610  22.5070580  27.5975030  25.0415840  22.3321920
  26.6800500  23.8570860  22.1151160  17.8186500  29.6356020  27.9131450
  18.3365170  28.8324280  27.8588340  17.3670520  29.5735160  28.7548280
  22.7056000  30.9022300  23.1858750  23.0471700  31.6464530  22.6902070
  21.8768710  31.2153420  23.5483580  15.3031040  26.6017390  34.8257150
  14.9445980  27.2671240  35.4130490  15.0085600  25.7700940  35.1969770
  18.5044160  27.0601630  37.7096700  18.2044300  27.2058810  36.8124520
  19.2755400  26.5006920  37.6170090  23.8472610  31.8570630  35.7051830
  23.8617150  30.9251590  35.4870740  23.1397710  31.9430390  36.3441600
  28.9809680  26.0410450  21.9750440  28.8973400  26.4724670  21.1246880
  29.7003870  26.5008800  22.4077260  30.0583820  28.4977970  35.0520410
  29.3332010  29.0906750  34.8549800  30.5859280  28.4901510  34.2533780
  30.0096930  32.8952710  24.7032570  29.3673090  32.2408330  24.9776290
  29.6227590  33.3007800  23.9273240  25.5883410  30.2238140  28.5504260
  25.9407230  29.6266270  27.8905630  24.7045740  29.8982370  28.7212510
  21.6746690  30.9835830  25.9574670  22.3617820  31.5305040  26.3382260
  20.8879110  31.5276560  25.9924280  13.8139090  26.6008650  21.4491750
  14.6833940  26.8833450  21.7327670  13.3229410  27.4144520  21.3340560
  20.9773900  27.9881860  25.5700030  21.4336680  28.7987110  25.7960220
  20.6262110  27.6705000  26.4018520  23.2806510  33.4988200  32.7992330
  23.9248730  33.7047580  33.4765750  23.6435950  32.7376600  32.3463180
  16.8785680  18.3319510  26.0422550  16.7500310  18.3237410  26.9907470
  16.0547700  18.6702600  25.6913560  24.5538590  31.5020550  31.5169780
  25.1960820  30.8013710  31.6301950  25.0787940  32.2818990  31.3366670
  28.3994310  31.7869170  21.2408920  28.1731890  31.0699610  21.8333560
  28.0090510  31.5381610  20.4030670  26.3276210  32.3015450  34.7205840
  26.6632450  32.8882140  35.3983760  25.4076550  32.1708160  34.9503630
  14.1810340  35.8136030  22.0153380  14.5407980  36.4125370  21.3610650
  14.0402680  36.3595920  22.7888410  13.8779610  20.0910630  35.5029250
  13.1638130  20.2907550  36.1081860  14.2974650  19.3150200  35.8744050
  27.9810560  29.7041110  22.9023080  27.6932260  30.1653800  23.6900960
  28.7762730  29.2438880  23.1707300  14.1652200  34.0790890  36.4895780
  14.2743320  33.1385630  36.3491170  13.5132760  34.3445640  35.8409510
  22.1564790  32.3506780  37.8893900  21.8361660  31.6316020  38.4339590
  21.4823150  33.0261850  37.9629960  20.1978960  33.1967230  22.8327050
  20.1889060  33.9296920  22.2171560  19.2777320  32.9498810  22.9254010
  15.7985600  28.4182120  23.5773810  15.1913550  29.1581020  23.5869110
  16.2734950  28.5081480  22.7512010  25.3718390  22.5832940  33.2530700
  25.7399210  21.7628150  33.5810270  24.5116590  22.6434830  33.6686350
  28.7380420  21.5389880  24.0618260  28.1093580  21.6435550  23.3476490
  28.2432340  21.7586660  24.8512140  23.1838560  33.2595470  21.4952240
  23.2850540  33.0559460  20.5654220  22.2840300  33.0053750  21.7000020
  20.7064450  23.8175830  25.4776140  19.9980600  24.2862170  25.9189750
  20.9908930  23.1597840  26.1121330  22.3320380  25.2372530  33.4768670
  22.8305630  25.7118350  34.1420520  22.4743330  24.3136050  33.6838700
  24.7379880  20.5426490  26.9171930  24.6147660  20.5612620  25.9681440
  25.6864440  20.5905430  27.0370330  21.8256670  35.7781790  26.1899910
  22.0798170  35.7403180  25.2679280  20.8769150  35.6515120  26.1828160
  18.9099470  22.1260910  22.8526850  19.7590000  22.5631060  22.7867040
  18.5430740  22.4381170  23.6798910  29.5387240  21.4540490  34.3197060
  29.0360840  22.1945890  34.6590870  30.3543900  21.8424490  34.0033850
  27.8309250  26.6973670  27.7658420  26.8899390  26.7123900  27.9406110
  28.1453320  25.9109630  28.2118720  17.8090890  28.3793270  21.3262380
  18.5754160  28.2674630  21.8887810  17.8865580  27.6831240  20.6739150
  16.5037650  25.8118340  22.0095270  16.5841240  24.8645850  22.1212670
  17.3957400  26.1425220  22.1155930  29.8334830  33.8682520  29.4412680
  29.9582250  34.6913690  29.9136490  30.7000390  33.6573250  29.0936830
  17.3052360  35.9613730  29.1129810  18.0414840  35.4129190  29.3838380
  17.6893280  36.8269740  28.9735800  14.1897840  32.0287300  24.9871320
  13.2637620  32.2708440  24.9776730  14.6554270  32.8561560  24.8656070
  16.3110640  35.1459800  38.3015390  17.1123370  35.4671850  38.7150790
  15.7962460  34.7855380  39.0235300  20.4154670  35.1344040  20.9355380
  21.2083280  35.4232870  20.4837170  19.8959020  34.7036210  20.2567860
  25.1475270  31.2539670  38.2490800  24.5413430  31.2771270  37.5086550
  24.8429380  30.5222710  38.7858050  26.5775640  34.9819960  36.8600210
  27.5297390  34.8977980  36.8100450  26.4303860  35.6461670  37.5334000
  29.4684840  34.3614170  22.3592120  29.1826350  33.9479310  21.5446300
  29.2704390  35.2901880  22.2392640  14.0308450  27.6333260  37.2451440
  14.5347470  27.0540540  37.8167670  13.2915870  27.9173490  37.7827810
  20.9332070  30.3547450  20.7997730  20.8282710  29.7399800  21.5259110
  20.7656290  29.8313340  20.0160740  21.0846390  29.0404250  36.7786960
  20.3192060  29.6089250  36.6941630  21.2662350  28.7480460  35.8855190
  24.1734800  29.4167480  21.4039720  23.6244900  29.8636780  22.0482460
  24.7954060  28.9116730  21.9277390  28.2269740  30.7709580  37.3361980
  28.9679210  31.1085340  36.8329440  27.4642420  30.9401640  36.7831750
  16.0631530  25.7762850  38.1401510  16.1036870  25.4776720  39.0486740
  16.9177030  26.1770460  37.9809030  19.8409920  28.3758400  23.3005020
  20.2626340  28.2098270  24.1436410  19.9660760  27.5658630  22.8060160
  18.0037340  24.3554950  36.1076000  17.4733800  23.8645900  35.4799340
  18.6725410  24.7839150  35.5733930  22.3537560  27.3996010  20.5482120
  22.8743220  26.6845030  20.1823270  23.0005960  28.0381880  20.8482630
  26.9015400  28.8224410  35.8717190  27.3156420  28.9769490  36.7207610
  25.9666400  28.9479630  36.0342970  27.3737570  26.1620570  37.8756340
  27.9558340  25.4072890  37.7876820  27.5499340  26.6928010  37.0987820
  18.4909640  21.3217320  36.1873290  18.3966510  20.7038070  35.4624160
  17.9107030  22.0483610  35.9603200  21.2571080  19.8790560  33.2200680
  20.8088380  19.9014820  32.3746230  20.6236280  19.4809580  33.8170980
  21.6630630  28.7744890  33.8413120  22.0818740  29.6177620  33.6689360
  20.7439260  28.9116930  33.6119900  23.9994530  26.5061070  35.2250960
  24.1190740  25.9102210  35.9645800  24.8588530  26.5430760  34.8052260
  26.3382430  27.0598260  33.8013470  25.8117650  27.5840880  33.1978610
  26.6813770  27.6925650  34.4323200  18.7368820  24.4491630  20.2463180
  18.5357880  23.5858990  20.6076520  18.5660870  24.3624990  19.3084780
  19.5138050  35.0797900  34.9570850  18.9759140  35.8043960  34.6379550
  19.7672010  34.6028240  34.1668190  20.7663300  23.0482420  36.4826780
  21.3562990  22.7398270  37.1704600  19.9483540  22.5762170  36.6386680
  25.5856730  22.6648230  36.7159800  24.8972250  22.0029770  36.6509790
  26.3062750  22.2186500  37.1608260  26.2157130  19.2599860  22.7750060
  26.4959420  18.4167760  23.1309480  25.4422860  19.4922970  23.2888810
  17.5351620  21.5492250  20.2341060  17.8377520  21.5559680  19.3260210
  18.2746210  21.1990110  20.7308720  22.3700260  36.3149110  35.2157500
  22.2958960  37.2184250  35.5229870  21.4679100  35.9961010  35.1879570
  20.7536550  20.4926870  21.2197260  20.4058550  19.8150860  20.6399710
  20.9549320  20.0316380  22.0340650  22.9185590  35.4807620  22.8383860
  23.8136380  35.8192590  22.8602620  22.9503220  34.7587030  22.2108140
  16.5581750  30.8534670  21.0670860  16.9956620  31.3964340  21.7228440
  17.0429480  30.0281620  21.0767200  13.7727550  33.6423700  28.5191120
  14.1030560  32.7744760  28.2869760  14.2018550  33.8482220  29.3496080
  18.3689470  31.9732710  26.1793090  18.0685010  31.8497680  27.0797000
  18.2626960  31.1141300  25.7708820  14.2617760  34.5094290  31.2572750
  13.8248750  34.6895090  32.0896900  14.8295440  35.2668910  31.1154470
  29.8979940  34.0111290  35.5450060  29.2981930  34.0703850  34.8013980
  30.0273840  33.0716270  35.6746910  31.1381390  31.7529110  20.8819770
  30.3074350  31.8205760  21.3527000  31.3153220  32.6433230  20.5786630
  30.5937850  28.4976590  23.3853970  31.3556760  29.0673240  23.4913660
  30.6092220  27.9303790  24.1562280  14.0942190  27.0214520  27.6161630
  13.4391030  26.7526160  26.9721330  14.9320140  26.9119000  27.1663610
  31.5997820  29.3526690  28.2295900  31.9706650  28.5694010  27.8231870
  32.2399750  30.0415790  28.0513200  28.5831580  30.7363270  33.6426220
  27.7691420  31.1660430  33.9052010  28.9905780  31.3481680  33.0295270
  30.6457020  28.7910960  20.5426490  30.9205860  29.6989840  20.4145710
  30.4567760  28.7273490  21.4788480  27.0432630  21.8155810  21.8380120
  27.4617510  21.6286790  20.9976780  26.7368690  20.9634860  22.1483050
  30.5422360  26.7279950  25.5355920  30.1665960  25.9607880  25.1037210
  29.8125480  27.1102650  26.0230850  15.1318120  27.4067090  32.1564970
  15.4991160  27.3194490  33.0360990  14.5628940  26.6433640  32.0571830
  29.9321980  25.8751470  35.1695440  29.7008070  25.6464220  34.2693390
  30.1926530  26.7951020  35.1240330  14.6834120  24.3176180  36.0623390
  13.7890170  24.2842940  36.4017100  15.2231670  24.5162970  36.8274640
  28.3710050  21.1007900  37.9475140  29.2480230  21.1091300  38.3309140
  28.3830890  20.3638740  37.3367490  13.3080270  24.2313450  23.5586960
  12.4044350  24.4943650  23.3838620  13.7920890  24.5024620  22.7786920
  29.8173320  24.9537440  28.8363160  30.3410800  24.4600090  28.2053330
  30.4032740  25.0887800  29.5810730  29.9963040  25.0377310  32.3582710
  29.0465750  25.0040850  32.4727700  30.1776050  25.9477420  32.1232480
  15.8507480  23.2878990  21.4681340  16.5599180  22.8662210  20.9828620
  15.1347420  23.3554220  20.8364690  15.4981640  19.3418320  20.5083990
  16.2209770  19.8827260  20.8265210  15.7706160  19.0681740  19.6325530
  29.3073290  24.2110790  24.7755570  29.8032410  23.9781660  25.5604450
  29.1089360  23.3722630  24.3593210  15.1873830  18.5924510  30.4106610
  15.8350020  18.0421890  29.9701770  15.6075670  18.8467660  31.2322420
  30.7360450  22.8471740  27.3093250  30.6259730  22.6927780  28.2475520
  31.4968040  22.3192680  27.0668660  29.0826170  18.7865870  33.7676250
  29.7198390  19.4000010  34.1335440  29.2301060  18.8226530  32.8225480
  31.6250720  20.6779660  20.5499390  32.5500030  20.5460840  20.3417680
  31.6026510  20.7572480  21.5035840  31.6989210  21.4490320  23.1756100
  30.9040710  21.3835440  23.7049010  31.9032490  22.3840960  23.1641450
  28.6407630  35.4881870  27.1694490  29.2366700  35.1666440  26.4928910
  28.8985780  35.0153690  27.9607760  14.9405830  18.7480180  33.1531930
  14.5920650  19.2044000  33.9190110  14.6093530  17.8537310  33.2354360
  16.5470200  31.9199780  37.3185120  16.5039830  31.5492690  38.1999580
  16.6781210  32.8577350  37.4586940  20.2476230  33.4759370  32.9194840
  20.0067590  33.7433930  32.0325360  21.1878870  33.6465100  32.9745700
  22.4530650  19.9392060  36.6751350  22.3919540  20.5313890  37.4246760
  23.3931030  19.8318020  36.5301610  25.0905210  19.5962120  36.3143640
  25.7045620  19.9141410  35.6524720  25.6354770  19.1110710  36.9339500
  31.5080390  35.4953750  33.7205480  31.0138670  35.8922620  33.0032610
  30.8993680  34.8702960  34.1142760  15.6126470  18.2756380  36.4282700
  16.1609460  18.0944430  35.6648810  15.6781780  17.4850490  36.9639010
  16.3858230  34.8662030  34.4382900  15.7918550  34.7346730  35.1772940
  16.3782070  34.0300170  33.9725000  25.8313250  18.1594260  32.6412930
  24.9573090  18.4929370  32.4385860  25.7224000  17.6867440  33.4664800
  26.7385230  20.3665130  34.0254650  26.4098590  19.5516890  33.6456380
  27.6867530  20.3234940  33.9020340  29.1919840  36.1377170  30.9992220
  28.7322810  36.8892980  30.6250240  28.5632300  35.4183640  30.9407020
  16.0170460  32.2320410  33.3890940  15.2904520  31.6125700  33.3216890
  16.0779610  32.6261020  32.5189020  19.6215560  34.4465410  30.1740350
  20.1380580  33.8352770  29.6488610  20.2712940  34.9494190  30.6651360
  22.3611060  35.3373900  31.0009330  22.6488870  35.0828200  30.1242340
  22.8734280  34.7851260  31.5914900  23.5788070  19.0764100  31.5805840
  22.7959860  19.5509600  31.8602600  23.2851000  18.1718930  31.4719020
  28.1309140  19.7787200  29.6254930  28.5717230  19.7232300  28.7776530
  27.8616730  20.6945210  29.6965110  29.9947710  19.4102440  27.6363750
  29.9336110  18.4663660  27.4894770  30.7739740  19.5182530  28.1817210
  14.3000460  35.5494800  26.5987700  14.1322500  34.9165480  27.2969590
  13.4334970  35.7554200  26.2481890  14.9228480  19.3811580  24.1019560
  15.6807840  19.4940460  23.5283590  14.4605650  20.2180780  24.0562990
  21.4642290  21.4950850  27.0921870  20.6516800  21.1207740  26.7517750
  21.9683930  20.7395930  27.3943060  25.9667270  18.1593300  28.3304940
  26.5696640  18.7313510  28.8053460  25.2260260  18.7232740  28.1078840
  29.1101870  18.5614860  23.6045220  29.3052500  19.4598310  23.8712650
  28.3231740  18.3301940  24.0978170  15.9063160  34.2428030  24.0437840
  15.3810780  34.6236060  23.3399800  15.8307740  34.8678800  24.7647550
  17.2953630  19.9075630  22.6421530  17.8246390  19.1205430  22.5129480
  17.9281950  20.5866820  22.8757060  19.4891470  19.6450770  25.6966920
  18.8594210  18.9438080  25.8637050  18.9496610  20.4054900  25.4800080
  22.4283420  36.2590000  38.3677530  23.3550730  36.0234270  38.4113490
  22.4133850  37.0862000  37.8863560  30.6628480  35.8015570  25.3651780
  30.8380670  35.1153310  24.7212700  29.9650050  36.3262620  24.9728450
  19.6147030  18.9234750  38.1319410  19.3331300  19.4268350  37.3680230
  19.9966730  18.1256500  37.7661540  18.5056130  36.1910410  22.9187090
  19.2374950  35.9069690  22.3710980  18.7649800  35.9523690  23.8086470
  17.6670920  32.3075140  22.9233420  17.0379800  32.7760240  23.4719250
  17.7818750  31.4624360  23.3579610  26.2162490  18.3388330  38.7099880
  26.1027940  18.6582940  39.6051400  27.0332230  18.7400840  38.4137160
  28.9960980  35.4859860  38.1918570  29.7886300  34.9909090  37.9844530
  29.2894130  36.1650000  38.7994180  25.1220640  26.3580800   9.0734620
  25.0414690  25.4435410   8.8026330  24.7085060  26.8547870   8.3674330
  23.2538680  28.1359820  10.9543890  22.4780780  27.6560260  11.2442460
  23.9051610  27.4565470  10.7800050  17.2704510  28.4479630  11.8319650
  16.4389390  28.1928340  12.2316160  17.8785490  28.5190400  12.5677570
  27.2746110  32.5420010   9.7343020  26.8127640  31.7707250  10.0630190
  28.0871660  32.5686080  10.2395470  17.2505770  32.4819720  12.0277670
  17.5533810  31.5917460  11.8487890  17.9949360  33.0389940  11.7999920
  15.6796460  23.4081520   5.6162040  14.7913160  23.7497490   5.5141920
  15.9637650  23.2081840   4.7242870  13.6429470  26.0087170  11.5001740
  14.2145580  25.2409370  11.5005380  13.6431010  26.3075930  10.5908350
  23.5009420  34.8278020   9.3547010  22.8820860  35.2835520   8.7841450
  24.3561200  34.9829480   8.9536710  22.6947670  30.8117010  10.9614050
  22.6255950  29.8706950  10.8003180  23.4567530  30.9018420  11.5336620
  14.8854340  21.4171530  13.2870670  14.7057180  20.5197280  13.5673430
  14.4834420  21.9643400  13.9617620  23.7252840  23.6187390  11.1882980
  24.1017660  22.7459270  11.0756650  23.6272350  23.9546090  10.2973420
  17.8557850  21.9913020   6.6500420  17.9624600  22.8916750   6.9569180
  16.9450210  21.9430990   6.3595070  27.5076960  21.1137830   8.1211320
  28.3286580  20.6234400   8.1636800  27.5411040  21.7035490   8.8743160
  15.5041010  23.9132030  11.8953010  16.1851120  24.1770400  12.5140410
  15.1889060  23.0732900  12.2291020  19.6965580  24.9599390  10.9825600
  20.2043800  25.4580360  11.6230620  20.2278820  24.1834590  10.8064960
  31.7976510  23.1304580  14.6854950  31.0928680  23.5186290  14.1670060
  32.0634430  23.8254870  15.2875880  17.9801680  19.5997950  15.2489020
  17.9820120  20.1170340  14.4434920  17.1505990  19.1228130  15.2258950
  24.3672770  29.7117260   6.7478920  23.7490040  30.1766710   6.1841640
  24.8796020  30.4044740   7.1648430  19.2304530  29.2393130  13.4262520
  18.8973910  29.8662050  14.0683590  19.4071210  29.7655010  12.6464190
  27.7438440  23.0538210  10.8938860  27.0394010  23.3423100  11.4741970
  28.1050600  23.8638320  10.5338420  17.6617010  21.3107910  13.2559470
  18.0033820  22.1549960  12.9613340  16.7232820  21.4591650  13.3724810
  18.4423630  31.2073930  15.2411700  19.0597630  31.8825010  14.9596150
  17.5816750  31.6161910  15.1499200  13.7355970  30.3973790   4.1218550
  13.3583950  30.8860890   3.3903450  13.9929040  31.0699070   4.7525080
  29.3601220  32.6713340  13.1566340  28.6764740  33.3412450  13.1483010
  29.8995510  32.8693990  12.3911200  30.8125360  22.4993000  11.2848070
  29.8650270  22.5331980  11.4163500  31.1375350  23.3131950  11.6697430
  21.3444900  18.7990180   9.5804060  21.6519880  18.2437070   8.8639560
  20.4145600  18.9334640   9.3977050  26.8959960  34.5157470  11.8711520
  26.9087120  34.1119760  11.0033780  26.3435180  35.2904760  11.7672950
  28.1905380  31.2373690   6.9601690  28.0801710  30.2948020   7.0851110
  28.1873630  31.5989330   7.8464450  26.2945400  29.4187310  13.1994130
  26.7114190  29.2047420  12.3647590  27.0185220  29.6760100  13.7702750
  23.7325660  26.8639010   6.3164180  22.8054940  26.7976390   6.5452650
  23.8850480  27.8019140   6.2019420  23.7194740  23.1356010   3.3131340
  22.7798410  23.2969970   3.3983800  24.0378000  23.8541690   2.7667330
  30.2407500  27.8174530  13.2910370  29.4126130  27.8867620  12.8160500
  30.8357980  28.4028840  12.8226200  27.7622950  28.4259310   6.8199430
  27.1435370  28.0878860   6.1725730  27.7447400  27.7819070   7.5278620
  27.2049510  24.6043850  14.2365240  26.7920690  25.4297560  14.4905230
  26.4725460  24.0188890  14.0441600  19.3382300  27.3903750   9.0983910
  18.9339300  26.6781000   8.6029810  19.4245420  27.0456990   9.9871950
  19.8064000  31.0771310  11.2623120  19.5092290  30.4716780  10.5830900
  20.7563820  31.1148620  11.1512480  18.0510920  24.1646960  12.8782950
  18.6025510  24.2742300  12.1036200  18.5654430  24.5384560  13.5938180
  27.8949610  34.6503180  14.9246220  27.4180170  35.4575370  14.7318830
  27.2111400  33.9981510  15.0772430  18.8982430  30.8153000  17.9130920
  18.0010960  31.0392970  18.1604320  18.9235300  30.9387940  16.9642320
  25.9387650  27.6646120   3.8272180  26.3780930  26.8268550   3.6810000
  26.6516070  28.2975520   3.9136320  17.7253650  27.6866320  16.4888290
  17.5861420  28.5589120  16.8575690  16.8435010  27.3439130  16.3436230
  24.0483030  32.6042190   7.7953420  24.4878940  33.3466520   7.3808810
  23.9869920  32.8468760   8.7192380  19.5234000  33.6288020  18.6973440
  19.4949430  34.0330970  17.8301870  19.3598970  32.6998380  18.5345040
  29.5204790  18.9188930   2.1413220  29.2077450  19.0115760   3.0412290
  30.2817260  19.4969960   2.0910650  16.0386930  26.2848730   6.5990560
  15.9184530  27.0110820   5.9871830  15.7287820  25.5151640   6.1218470
  31.4748820  34.4115120  19.9937610  31.9508540  34.8898010  20.6726690
  32.0955980  34.3432610  19.2683110  13.6772300  29.4563870  12.4059200
  13.7552720  29.5912640  11.4614920  14.2913980  28.7479760  12.5987320
  14.9219930  31.1564060   8.8165380  14.5148010  31.2978650   7.9618980
  15.8132940  30.8724220   8.6136590  30.8782070  31.6027970  17.1537620
  31.0045130  31.3639850  16.2354800  30.9203450  30.7712510  17.6259700
  24.7398810  35.3055970  15.7232430  25.2543480  35.2163980  16.5254860
  23.8967890  35.6515670  16.0160340  26.7153210  35.5911310   5.1516430
  26.5554350  35.3014250   6.0498260  26.5499920  34.8151440   4.6161660
  19.1941590  35.3709840   6.9288050  19.0184070  34.4545380   6.7155850
  18.3397330  35.7297130   7.1685850  26.4179340  33.0998870   3.7114430
  25.7244500  33.0976160   3.0516710  27.1602200  32.6758190   3.2808600
  25.9829270  34.7261580   7.7862920  26.4386220  33.9450960   8.1001540
  26.3221790  35.4368400   8.3304100  30.7306080  23.6560430  18.1187360
  30.1150350  24.1640100  17.5902820  30.4102500  22.7558760  18.0613300
  13.7331820  30.4978040  14.9453660  13.8962860  30.0283400  14.1273030
  14.1984270  29.9901600  15.6102500  18.5050590  19.6283800   9.9814230
  18.0618740  20.4093340   9.6498750  19.0635580  19.9513690  10.6885170
  22.7920400  22.4952320  15.5849550  22.3299770  22.7035340  16.3969490
  22.3898510  21.6811670  15.2820220  27.7924910  23.7161270  16.7146210
  26.9418500  23.4167020  17.0355280  27.6326700  23.9603280  15.8030030
  24.8874620  25.2163020  18.8145000  25.2128030  24.3826770  18.4747230
  25.6754950  25.7391540  18.9623330  21.6209410  19.2494500   4.8620060
  20.9963590  19.2454370   5.5873370  21.5339530  18.3825460   4.4656030
  20.5426490  20.1731130  11.8403830  20.8398820  21.0793960  11.7595850
  21.0912050  19.6849910  11.2263400  18.2964810  24.7517370   7.7095480
  18.0705730  24.5354540   8.6142100  17.5157340  25.1845830   7.3641450
  25.5262570  24.7580740   6.3086130  24.9271460  25.4816540   6.1249750
  26.0742180  24.6957520   5.5262580  20.7364020  25.6502950  18.3755750
  20.6407620  24.7097680  18.2256150  21.5796000  25.8718020  17.9803820
  24.1327440  23.3944280   8.3389410  24.5257010  23.7116480   7.5258100
  24.4944290  22.5156160   8.4533930  15.8674560  22.0616620  16.5289530
  15.4737950  22.9091830  16.7362310  15.1792960  21.4242990  16.7198170
  22.4419610  22.1451590  19.5986270  21.7517930  21.9523790  20.2332360
  23.1851910  22.4286230  20.1310570  13.1691610  19.9845080  10.5619610
  12.8804660  20.5547940  11.2744590  13.9137370  19.5049530  10.9250840
  24.7182580  25.9850030  12.4340190  23.9863700  26.4936840  12.7830290
  24.3206920  25.1680010  12.1328970  21.1559970  22.6604230  10.8392680
  21.1596030  22.2194180   9.9897220  22.0511090  22.9821560  10.9464500
  17.0062350  22.5430720   9.7986890  16.6662400  23.0205950  10.5553940
  16.2439670  22.0895840   9.4387990  21.2180120  23.6616310   3.8299440
  21.3392940  23.6202790   4.7785260  20.8328630  24.5240460   3.6746170
  25.1808490  21.4383710  11.8463130  25.1981230  21.8892360  12.6904980
  24.9324070  20.5389350  12.0596570  20.2301620  25.9717450   3.2282740
  19.6618520  25.5235700   2.6018650  20.9390620  26.3310230   2.6947890
  28.6079240  18.8515890  17.6849510  28.9325010  18.1205550  18.2107490
  28.6435750  18.5329530  16.7830500  15.3070800  29.8729470  17.1049470
  14.9225590  29.2323140  17.7032430  15.6182990  30.5765590  17.6744200
  21.4567940  26.7206010  12.5858090  21.8238070  26.2464580  13.3319430
  21.2673000  27.5947580  12.9266430  14.3208430  21.4649700   8.7151560
  14.0355350  21.1005370   9.5530180  14.2587290  20.7330160   8.1014700
  19.2467310  25.7614650  14.9042300  18.9424380  26.6406630  15.1292660
  20.2013770  25.8214440  14.9399740  17.7749100  29.9675640   5.5009150
  17.0011360  29.4273260   5.3407870  18.5043730  29.4482250   5.1626910
  28.5337080  28.9641000  11.2935540  29.2536200  29.4596290  10.9031650
  28.3318900  28.2858890  10.6489410  23.9947020  20.3578960   5.4364930
  23.1811630  19.8592130   5.3610240  23.8008970  21.1977210   5.0201280
  23.9155880  29.0350060  17.1804540  23.8493190  28.1145730  16.9262130
  23.2861020  29.1325500  17.8949180  26.7095410  24.7298610   3.7327090
  27.5975030  25.0415840   3.5578430  26.6800500  23.8570860   3.3407670
  17.8186500  29.6356020   9.1387960  18.3365170  28.8324280   9.0844850
  17.3670520  29.5735160   9.9804790  22.7056000  30.9022300   4.4115260
  23.0471700  31.6464530   3.9158580  21.8768710  31.2153420   4.7740090
  15.3031040  26.6017390  16.0513660  14.9445980  27.2671240  16.6387000
  15.0085600  25.7700940  16.4226280  18.5044160  27.0601630  18.9353210
  18.2044300  27.2058810  18.0381030  19.2755400  26.5006920  18.8426600
  23.8472610  31.8570630  16.9308340  23.8617150  30.9251590  16.7127250
  23.1397710  31.9430390  17.5698110  28.9809680  26.0410450   3.2006950
  28.8973400  26.4724670   2.3503390  29.7003870  26.5008800   3.6333770
  30.0583820  28.4977970  16.2776920  29.3332010  29.0906750  16.0806310
  30.5859280  28.4901510  15.4790290  30.0096930  32.8952710   5.9289080
  29.3673090  32.2408330   6.2032800  29.6227590  33.3007800   5.1529750
  25.5883410  30.2238140   9.7760770  25.9407230  29.6266270   9.1162140
  24.7045740  29.8982370   9.9469020  21.6746690  30.9835830   7.1831180
  22.3617820  31.5305040   7.5638770  20.8879110  31.5276560   7.2180790
  13.8139090  26.6008650   2.6748260  14.6833940  26.8833450   2.9584180
  13.3229410  27.4144520   2.5597070  20.9773900  27.9881860   6.7956540
  21.4336680  28.7987110   7.0216730  20.6262110  27.6705000   7.6275030
  23.2806510  33.4988200  14.0248840  23.9248730  33.7047580  14.7022260
  23.6435950  32.7376600  13.5719690  16.8785680  18.3319510   7.2679060
  16.7500310  18.3237410   8.2163980  16.0547700  18.6702600   6.9170070
  24.5538590  31.5020550  12.7426290  25.1960820  30.8013710  12.8558460
  25.0787940  32.2818990  12.5623180  28.3994310  31.7869170   2.4665430
  28.1731890  31.0699610   3.0590070  28.0090510  31.5381610   1.6287180
  26.3276210  32.3015450  15.9462350  26.6632450  32.8882140  16.6240270
  25.4076550  32.1708160  16.1760140  14.1810340  35.8136030   3.2409890
  14.5407980  36.4125370   2.5867160  14.0402680  36.3595920   4.0144920
  13.8779610  20.0910630  16.7285760  13.1638130  20.2907550  17.3338370
  14.2974650  19.3150200  17.1000560  27.9810560  29.7041110   4.1279590
  27.6932260  30.1653800   4.9157470  28.7762730  29.2438880   4.3963810
  14.1652200  34.0790890  17.7152290  14.2743320  33.1385630  17.5747680
  13.5132760  34.3445640  17.0666020  22.1564790  32.3506780  19.1150410
  21.8361660  31.6316020  19.6596100  21.4823150  33.0261850  19.1886470
  20.1978960  33.1967230   4.0583560  20.1889060  33.9296920   3.4428070
  19.2777320  32.9498810   4.1510520  15.7985600  28.4182120   4.8030320
  15.1913550  29.1581020   4.8125620  16.2734950  28.5081480   3.9768520
  25.3718390  22.5832940  14.4787210  25.7399210  21.7628150  14.8066780
  24.5116590  22.6434830  14.8942860  28.7380420  21.5389880   5.2874770
  28.1093580  21.6435550   4.5733000  28.2432340  21.7586660   6.0768650
  23.1838560  33.2595470   2.7208750  23.2850540  33.0559460   1.7910730
  22.2840300  33.0053750   2.9256530  20.7064450  23.8175830   6.7032650
  19.9980600  24.2862170   7.1446260  20.9908930  23.1597840   7.3377840
  22.3320380  25.2372530  14.7025180  22.8305630  25.7118350  15.3677030
  22.4743330  24.3136050  14.9095210  24.7379880  20.5426490   8.1428440
  24.6147660  20.5612620   7.1937950  25.6864440  20.5905430   8.2626840
  21.8256670  35.7781790   7.4156420  22.0798170  35.7403180   6.4935790
  20.8769150  35.6515120   7.4084670  18.9099470  22.1260910   4.0783360
  19.7590000  22.5631060   4.0123550  18.5430740  22.4381170   4.9055420
  29.5387240  21.4540490  15.5453570  29.0360840  22.1945890  15.8847380
  30.3543900  21.8424490  15.2290360  27.8309250  26.6973670   8.9914930
  26.8899390  26.7123900   9.1662620  28.1453320  25.9109630   9.4375230
  17.8090890  28.3793270   2.5518890  18.5754160  28.2674630   3.1144320
  17.8865580  27.6831240   1.8995660  16.5037650  25.8118340   3.2351780
  16.5841240  24.8645850   3.3469180  17.3957400  26.1425220   3.3412440
  29.8334830  33.8682520  10.6669190  29.9582250  34.6913690  11.1393000
  30.7000390  33.6573250  10.3193340  17.3052360  35.9613730  10.3386320
  18.0414840  35.4129190  10.6094890  17.6893280  36.8269740  10.1992310
  14.1897840  32.0287300   6.2127830  13.2637620  32.2708440   6.2033240
  14.6554270  32.8561560   6.0912580  16.3110640  35.1459800  19.5271900
  17.1123370  35.4671850  19.9407300  15.7962460  34.7855380  20.2491810
  20.4154670  35.1344040   2.1611890  21.2083280  35.4232870   1.7093680
  19.8959020  34.7036210   1.4824370  25.1475270  31.2539670  19.4747310
  24.5413430  31.2771270  18.7343060  24.8429380  30.5222710  20.0114560
  26.5775640  34.9819960  18.0856720  27.5297390  34.8977980  18.0356960
  26.4303860  35.6461670  18.7590510  29.4684840  34.3614170   3.5848630
  29.1826350  33.9479310   2.7702810  29.2704390  35.2901880   3.4649150
  14.0308450  27.6333260  18.4707950  14.5347470  27.0540540  19.0424180
  13.2915870  27.9173490  19.0084320  21.0846390  29.0404250  18.0043470
  20.3192060  29.6089250  17.9198140  21.2662350  28.7480460  17.1111700
  24.1734800  29.4167480   2.6296230  23.6244900  29.8636780   3.2738970
  24.7954060  28.9116730   3.1533900  28.2269740  30.7709580  18.5618490
  28.9679210  31.1085340  18.0585950  27.4642420  30.9401640  18.0088260
  16.0631530  25.7762850  19.3658020  16.1036870  25.4776720  20.2743250
  16.9177030  26.1770460  19.2065540  19.8409920  28.3758400   4.5261530
  20.2626340  28.2098270   5.3692920  19.9660760  27.5658630   4.0316670
  18.0037340  24.3554950  17.3332510  17.4733800  23.8645900  16.7055850
  18.6725410  24.7839150  16.7990440  26.9015400  28.8224410  17.0973700
  27.3156420  28.9769490  17.9464120  25.9666400  28.9479630  17.2599480
  27.3737570  26.1620570  19.1012850  27.9558340  25.4072890  19.0133330
  27.5499340  26.6928010  18.3244330  18.4909640  21.3217320  17.4129800
  18.3966510  20.7038070  16.6880670  17.9107030  22.0483610  17.1859710
  21.2571080  19.8790560  14.4457190  20.8088380  19.9014820  13.6002740
  20.6236280  19.4809580  15.0427490  21.6630630  28.7744890  15.0669630
  22.0818740  29.6177620  14.8945870  20.7439260  28.9116930  14.8376410
  23.9994530  26.5061070  16.4507470  24.1190740  25.9102210  17.1902310
  24.8588530  26.5430760  16.0308770  26.3382430  27.0598260  15.0269980
  25.8117650  27.5840880  14.4235120  26.6813770  27.6925650  15.6579710
  19.5138050  35.0797900  16.1827360  18.9759140  35.8043960  15.8636060
  19.7672010  34.6028240  15.3924700  20.7663300  23.0482420  17.7083290
  21.3562990  22.7398270  18.3961110  19.9483540  22.5762170  17.8643190
  25.5856730  22.6648230  17.9416310  24.8972250  22.0029770  17.8766300
  26.3062750  22.2186500  18.3864770  26.2157130  19.2599860   4.0006570
  26.4959420  18.4167760   4.3565990  25.4422860  19.4922970   4.5145320
  22.3700260  36.3149110  16.4414010  22.2958960  37.2184250  16.7486380
  21.4679100  35.9961010  16.4136080  20.7536550  20.4926870   2.4453770
  20.4058550  19.8150860   1.8656220  20.9549320  20.0316380   3.2597160
  22.9185590  35.4807620   4.0640370  23.8136380  35.8192590   4.0859130
  22.9503220  34.7587030   3.4364650  16.5581750  30.8534670   2.2927370
  16.9956620  31.3964340   2.9484950  17.0429480  30.0281620   2.3023710
  13.7727550  33.6423700   9.7447630  14.1030560  32.7744760   9.5126270
  14.2018550  33.8482220  10.5752590  18.3689470  31.9732710   7.4049600
  18.0685010  31.8497680   8.3053510  18.2626960  31.1141300   6.9965330
  14.2617760  34.5094290  12.4829260  13.8248750  34.6895090  13.3153410
  14.8295440  35.2668910  12.3410980  29.8979940  34.0111290  16.7706570
  29.2981930  34.0703850  16.0270490  30.0273840  33.0716270  16.9003420
  31.1381390  31.7529110   2.1076280  30.3074350  31.8205760   2.5783510
  31.3153220  32.6433230   1.8043140  30.5937850  28.4976590   4.6110480
  31.3556760  29.0673240   4.7170170  30.6092220  27.9303790   5.3818790
  14.0942190  27.0214520   8.8418140  13.4391030  26.7526160   8.1977840
  14.9320140  26.9119000   8.3920120  31.5997820  29.3526690   9.4552410
  31.9706650  28.5694010   9.0488380  32.2399750  30.0415790   9.2769710
  28.5831580  30.7363270  14.8682730  27.7691420  31.1660430  15.1308520
  28.9905780  31.3481680  14.2551780  30.6457020  28.7910960   1.7683000
  30.9205860  29.6989840   1.6402220  30.4567760  28.7273490   2.7044990
  27.0432630  21.8155810   3.0636630  27.4617510  21.6286790   2.2233290
  26.7368690  20.9634860   3.3739560  30.5422360  26.7279950   6.7612430
  30.1665960  25.9607880   6.3293720  29.8125480  27.1102650   7.2487360
  15.1318120  27.4067090  13.3821480  15.4991160  27.3194490  14.2617500
  14.5628940  26.6433640  13.2828340  29.9321980  25.8751470  16.3951950
  29.7008070  25.6464220  15.4949900  30.1926530  26.7951020  16.3496840
  14.6834120  24.3176180  17.2879900  13.7890170  24.2842940  17.6273610
  15.2231670  24.5162970  18.0531150  28.3710050  21.1007900  19.1731650
  29.2480230  21.1091300  19.5565650  28.3830890  20.3638740  18.5624000
  13.3080270  24.2313450   4.7843470  12.4044350  24.4943650   4.6095130
  13.7920890  24.5024620   4.0043430  29.8173320  24.9537440  10.0619670
  30.3410800  24.4600090   9.4309840  30.4032740  25.0887800  10.8067240
  29.9963040  25.0377310  13.5839220  29.0465750  25.0040850  13.6984210
  30.1776050  25.9477420  13.3488990  15.8507480  23.2878990   2.6937850
  16.5599180  22.8662210   2.2085130  15.1347420  23.3554220   2.0621200
  29.3073290  24.2110790   6.0012080  29.8032410  23.9781660   6.7860960
  29.1089360  23.3722630   5.5849720  15.1873830  18.5924510  11.6363120
  15.8350020  18.0421890  11.1958280  15.6075670  18.8467660  12.4578930
  30.7360450  22.8471740   8.5349760  30.6259730  22.6927780   9.4732030
  31.4968040  22.3192680   8.2925170  29.0826170  18.7865870  14.9932760
  29.7198390  19.4000010  15.3591950  29.2301060  18.8226530  14.0481990
  31.6250720  20.6779660   1.7755900  32.5500030  20.5460840   1.5674190
  31.6026510  20.7572480   2.7292350  31.6989210  21.4490320   4.4012610
  30.9040710  21.3835440   4.9305520  31.9032490  22.3840960   4.3897960
  28.6407630  35.4881870   8.3951000  29.2366700  35.1666440   7.7185420
  28.8985780  35.0153690   9.1864270  14.9405830  18.7480180  14.3788440
  14.5920650  19.2044000  15.1446620  14.6093530  17.8537310  14.4610870
  16.5470200  31.9199780  18.5441630  16.5039830  31.5492690  19.4256090
  16.6781210  32.8577350  18.6843450  20.2476230  33.4759370  14.1451350
  20.0067590  33.7433930  13.2581870  21.1878870  33.6465100  14.2002210
  22.4530650  19.9392060  17.9007860  22.3919540  20.5313890  18.6503270
  23.3931030  19.8318020  17.7558120  25.0905210  19.5962120  17.5400150
  25.7045620  19.9141410  16.8781230  25.6354770  19.1110710  18.1596010
  31.5080390  35.4953750  14.9461990  31.0138670  35.8922620  14.2289120
  30.8993680  34.8702960  15.3399270  15.6126470  18.2756380  17.6539210
  16.1609460  18.0944430  16.8905320  15.6781780  17.4850490  18.1895520
  16.3858230  34.8662030  15.6639410  15.7918550  34.7346730  16.4029450
  16.3782070  34.0300170  15.1981510  25.8313250  18.1594260  13.8669440
  24.9573090  18.4929370  13.6642370  25.7224000  17.6867440  14.6921310
  26.7385230  20.3665130  15.2511160  26.4098590  19.5516890  14.8712890
  27.6867530  20.3234940  15.1276850  29.1919840  36.1377170  12.2248730
  28.7322810  36.8892980  11.8506750  28.5632300  35.4183640  12.1663530
  16.0170460  32.2320410  14.6147450  15.2904520  31.6125700  14.5473400
  16.0779610  32.6261020  13.7445530  19.6215560  34.4465410  11.3996860
  20.1380580  33.8352770  10.8745120  20.2712940  34.9494190  11.8907870
  22.3611060  35.3373900  12.2265840  22.6488870  35.0828200  11.3498850
  22.8734280  34.7851260  12.8171410  23.5788070  19.0764100  12.8062350
  22.7959860  19.5509600  13.0859110  23.2851000  18.1718930  12.6975530
  28.1309140  19.7787200  10.8511440  28.5717230  19.7232300  10.0033040
  27.8616730  20.6945210  10.9221620  29.9947710  19.4102440   8.8620260
  29.9336110  18.4663660   8.7151280  30.7739740  19.5182530   9.4073720
  14.3000460  35.5494800   7.8244210  14.1322500  34.9165480   8.5226100
  13.4334970  35.7554200   7.4738400  14.9228480  19.3811580   5.3276070
  15.6807840  19.4940460   4.7540100  14.4605650  20.2180780   5.2819500
  21.4642290  21.4950850   8.3178380  20.6516800  21.1207740   7.9774260
  21.9683930  20.7395930   8.6199570  25.9667270  18.1593300   9.5561450
  26.5696640  18.7313510  10.0309970  25.2260260  18.7232740   9.3335350
  29.1101870  18.5614860   4.8301730  29.3052500  19.4598310   5.0969160
  28.3231740  18.3301940   5.3234680  15.9063160  34.2428030   5.2694350
  15.3810780  34.6236060   4.5656310  15.8307740  34.8678800   5.9904060
  17.2953630  19.9075630   3.8678040  17.8246390  19.1205430   3.7385990
  17.9281950  20.5866820   4.1013570  19.4891470  19.6450770   6.9223430
  18.8594210  18.9438080   7.0893560  18.9496610  20.4054900   6.7056590
  22.4283420  36.2590000  19.5934040  23.3550730  36.0234270  19.6370000
  22.4133850  37.0862000  19.1120070  30.6628480  35.8015570   6.5908290
  30.8380670  35.1153310   5.9469210  29.9650050  36.3262620   6.1984960
  19.6147030  18.9234750  19.3575920  19.3331300  19.4268350  18.5936740
  19.9966730  18.1256500  18.9918050  18.5056130  36.1910410   4.1443600
  19.2374950  35.9069690   3.5967490  18.7649800  35.9523690   5.0342980
  17.6670920  32.3075140   4.1489930  17.0379800  32.7760240   4.6975760
  17.7818750  31.4624360   4.5836120  26.2162490  18.3388330  19.9356390
  26.1027940  18.6582940  20.8307910  27.0332230  18.7400840  19.6393670
  28.9960980  35.4859860  19.4175080  29.7886300  34.9909090  19.2101040
  29.2894130  36.1650000  20.0250690  25.1220640   7.5837310  65.3965090
  25.0414690   6.6691920  65.1256800  24.7085060   8.0804380  64.6904800
  23.2538680   9.3616330  67.2774360  22.4780780   8.8816770  67.5672930
  23.9051610   8.6821980  67.1030520  17.2704510   9.6736140  68.1550120
  16.4389390   9.4184850  68.5546630  17.8785490   9.7446910  68.8908040
  27.2746110  13.7676520  66.0573490  26.8127640  12.9963760  66.3860660
  28.0871660  13.7942590  66.5625940  17.2505770  13.7076230  68.3508140
  17.5533810  12.8173970  68.1718360  17.9949360  14.2646450  68.1230390
  15.6796460   4.6338030  61.9392510  14.7913160   4.9754000  61.8372390
  15.9637650   4.4338350  61.0473340  13.6429470   7.2343680  67.8232210
  14.2145580   6.4665880  67.8235850  13.6431010   7.5332440  66.9138820
  23.5009420  16.0534530  65.6777480  22.8820860  16.5092030  65.1071920
  24.3561200  16.2085990  65.2767180  22.6947670  12.0373520  67.2844520
  22.6255950  11.0963460  67.1233650  23.4567530  12.1274930  67.8567090
  14.8854340   2.6428040  69.6101140  14.7057180   1.7453790  69.8903900
  14.4834420   3.1899910  70.2848090  23.7252840   4.8443900  67.5113450
  24.1017660   3.9715780  67.3987120  23.6272350   5.1802600  66.6203890
  17.8557850   3.2169530  62.9730890  17.9624600   4.1173260  63.2799650
  16.9450210   3.1687500  62.6825540  27.5076960   2.3394340  64.4441790
  28.3286580   1.8490910  64.4867270  27.5411040   2.9292000  65.1973630
  15.5041010   5.1388540  68.2183480  16.1851120   5.4026910  68.8370880
  15.1889060   4.2989410  68.5521490  19.6965580   6.1855900  67.3056070
  20.2043800   6.6836870  67.9461090  20.2278820   5.4091100  67.1295430
  31.7976510   4.3561090  71.0085420  31.0928680   4.7442800  70.4900530
  32.0634430   5.0511380  71.6106350  24.3672770  10.9373770  63.0709390
  23.7490040  11.4023220  62.5072110  24.8796020  11.6301250  63.4878900
  19.2304530  10.4649640  69.7492990  18.8973910  11.0918560  70.3914060
  19.4071210  10.9911520  68.9694660  27.7438440   4.2794720  67.2169330
  27.0394010   4.5679610  67.7972440  28.1050600   5.0894830  66.8568890
  17.6617010   2.5364420  69.5789940  18.0033820   3.3806470  69.2843810
  16.7232820   2.6848160  69.6955280  18.4423630  12.4330440  71.5642170
  19.0597630  13.1081520  71.2826620  17.5816750  12.8418420  71.4729670
  13.7355970  11.6230300  60.4449020  13.3583950  12.1117400  59.7133920
  13.9929040  12.2955580  61.0755550  29.3601220  13.8969850  69.4796810
  28.6764740  14.5668960  69.4713480  29.8995510  14.0950500  68.7141670
  30.8125360   3.7249510  67.6078540  29.8650270   3.7588490  67.7393970
  31.1375350   4.5388460  67.9927900  26.8959960  15.7413980  68.1941990
  26.9087120  15.3376270  67.3264250  26.3435180  16.5161270  68.0903420
  28.1905380  12.4630200  63.2832160  28.0801710  11.5204530  63.4081580
  28.1873630  12.8245840  64.1694920  26.2945400  10.6443820  69.5224600
  26.7114190  10.4303930  68.6878060  27.0185220  10.9016610  70.0933220
  23.7325660   8.0895520  62.6394650  22.8054940   8.0232900  62.8683120
  23.8850480   9.0275650  62.5249890  23.7194740   4.3612520  59.6361810
  22.7798410   4.5226480  59.7214270  24.0378000   5.0798200  59.0897800
  30.2407500   9.0431040  69.6140840  29.4126130   9.1124130  69.1390970
  30.8357980   9.6285350  69.1456670  27.7622950   9.6515820  63.1429900
  27.1435370   9.3135370  62.4956200  27.7447400   9.0075580  63.8509090
  27.2049510   5.8300360  70.5595710  26.7920690   6.6554070  70.8135700
  26.4725460   5.2445400  70.3672070  19.3382300   8.6160260  65.4214380
  18.9339300   7.9037510  64.9260280  19.4245420   8.2713500  66.3102420
  19.8064000  12.3027820  67.5853590  19.5092290  11.6973290  66.9061370
  20.7563820  12.3405130  67.4742950  18.0510920   5.3903470  69.2013420
  18.6025510   5.4998810  68.4266670  18.5654430   5.7641070  69.9168650
  27.8949610  15.8759690  71.2476690  27.4180170  16.6831880  71.0549300
  27.2111400  15.2238020  71.4002900  18.8982430  12.0409510  74.2361390
  18.0010960  12.2649480  74.4834790  18.9235300  12.1644450  73.2872790
  25.9387650   8.8902630  60.1502650  26.3780930   8.0525060  60.0040470
  26.6516070   9.5232030  60.2366790  17.7253650   8.9122830  72.8118760
  17.5861420   9.7845630  73.1806160  16.8435010   8.5695640  72.6666700
  24.0483030  13.8298700  64.1183890  24.4878940  14.5723030  63.7039280
  23.9869920  14.0725270  65.0422850  19.5234000  14.8544530  75.0203910
  19.4949430  15.2587480  74.1532340  19.3598970  13.9254890  74.8575510
  16.0386930   7.5105240  62.9221030  15.9184530   8.2367330  62.3102300
  15.7287820   6.7408150  62.4448940  13.6772300  10.6820380  68.7289670
  13.7552720  10.8169150  67.7845390  14.2913980   9.9736270  68.9217790
  14.9219930  12.3820570  65.1395850  14.5148010  12.5235160  64.2849450
  15.8132940  12.0980730  64.9367060  30.8782070  12.8284480  73.4768090
  31.0045130  12.5896360  72.5585270  30.9203450  11.9969020  73.9490170
  24.7398810  16.5312480  72.0462900  25.2543480  16.4420490  72.8485330
  23.8967890  16.8772180  72.3390810  26.7153210  16.8167820  61.4746900
  26.5554350  16.5270760  62.3728730  26.5499920  16.0407950  60.9392130
  19.1941590  16.5966350  63.2518520  19.0184070  15.6801890  63.0386320
  18.3397330  16.9553640  63.4916320  26.4179340  14.3255380  60.0344900
  25.7244500  14.3232670  59.3747180  27.1602200  13.9014700  59.6039070
  25.9829270  15.9518090  64.1093390  26.4386220  15.1707470  64.4232010
  26.3221790  16.6624910  64.6534570  30.7306080   4.8816940  74.4417830
  30.1150350   5.3896610  73.9133290  30.4102500   3.9815270  74.3843770
  13.7331820  11.7234550  71.2684130  13.8962860  11.2539910  70.4503500
  14.1984270  11.2158110  71.9332970  22.7920400   3.7208830  71.9080020
  22.3299770   3.9291850  72.7199960  22.3898510   2.9068180  71.6050690
  27.7924910   4.9417780  73.0376680  26.9418500   4.6423530  73.3585750
  27.6326700   5.1859790  72.1260500  24.8874620   6.4419530  75.1375470
  25.2128030   5.6083280  74.7977700  25.6754950   6.9648050  75.2853800
  18.2964810   5.9773880  64.0325950  18.0705730   5.7611050  64.9372570
  17.5157340   6.4102340  63.6871920  25.5262570   5.9837250  62.6316600
  24.9271460   6.7073050  62.4480220  26.0742180   5.9214030  61.8493050
  20.7364020   6.8759460  74.6986220  20.6407620   5.9354190  74.5486620
  21.5796000   7.0974530  74.3034290  24.1327440   4.6200790  64.6619880
  24.5257010   4.9372990  63.8488570  24.4944290   3.7412670  64.7764400
  15.8674560   3.2873130  72.8520000  15.4737950   4.1348340  73.0592780
  15.1792960   2.6499500  73.0428640  13.3561840   5.1521710  58.0952800
  13.2736510   6.0952470  58.2367790  13.0044900   5.0096620  57.2165150
  24.7182580   7.2106540  68.7570660  23.9863700   7.7193350  69.1060760
  24.3206920   6.3936520  68.4559440  21.1559970   3.8860740  67.1623150
  21.1596030   3.4450690  66.3127690  22.0511090   4.2078070  67.2694970
  17.0062350   3.7687230  66.1217360  16.6662400   4.2462460  66.8784410
  16.2439670   3.3152350  65.7618460  21.2180120   4.8872820  60.1529910
  21.3392940   4.8459300  61.1015730  20.8328630   5.7496970  59.9976640
  25.1808490   2.6640220  68.1693600  25.1981230   3.1148870  69.0135450
  24.9324070   1.7645860  68.3827040  20.2301620   7.1973960  59.5513210
  19.6618520   6.7492210  58.9249120  20.9390620   7.5566740  59.0178360
  15.3070800  11.0985980  73.4279940  14.9225590  10.4579650  74.0262900
  15.6182990  11.8022100  73.9974670  21.4567940   7.9462520  68.9088560
  21.8238070   7.4721090  69.6549900  21.2673000   8.8204090  69.2496900
  14.3208430   2.6906210  65.0382030  14.0355350   2.3261880  65.8760650
  14.2587290   1.9586670  64.4245170  19.2467310   6.9871160  71.2272770
  18.9424380   7.8663140  71.4523130  20.2013770   7.0470950  71.2630210
  17.7749100  11.1932150  61.8239620  17.0011360  10.6529770  61.6638340
  18.5043730  10.6738760  61.4857380  28.5337080  10.1897510  67.6166010
  29.2536200  10.6852800  67.2262120  28.3318900   9.5115400  66.9719880
  23.9155880  10.2606570  73.5035010  23.8493190   9.3402240  73.2492600
  23.2861020  10.3582010  74.2179650  26.7095410   5.9555120  60.0557560
  27.5975030   6.2672350  59.8808900  26.6800500   5.0827370  59.6638140
  17.8186500  10.8612530  65.4618430  18.3365170  10.0580790  65.4075320
  17.3670520  10.7991670  66.3035260  22.7056000  12.1278810  60.7345730
  23.0471700  12.8721040  60.2389050  21.8768710  12.4409930  61.0970560
  15.3031040   7.8273900  72.3744130  14.9445980   8.4927750  72.9617470
  15.0085600   6.9957450  72.7456750  18.5044160   8.2858140  75.2583680
  18.2044300   8.4315320  74.3611500  19.2755400   7.7263430  75.1657070
  23.8472610  13.0827140  73.2538810  23.8617150  12.1508100  73.0357720
  23.1397710  13.1686900  73.8928580  28.9809680   7.2666960  59.5237420
  28.8973400   7.6981180  58.6733860  29.7003870   7.7265310  59.9564240
  30.0583820   9.7234480  72.6007390  29.3332010  10.3163260  72.4036780
  30.5859280   9.7158020  71.8020760  30.0096930  14.1209220  62.2519550
  29.3673090  13.4664840  62.5263270  29.6227590  14.5264310  61.4760220
  25.5883410  11.4494650  66.0991240  25.9407230  10.8522780  65.4392610
  24.7045740  11.1238880  66.2699490  21.6746690  12.2092340  63.5061650
  22.3617820  12.7561550  63.8869240  20.8879110  12.7533070  63.5411260
  13.8139090   7.8265160  58.9978730  14.6833940   8.1089960  59.2814650
  13.3229410   8.6401030  58.8827540  20.9773900   9.2138370  63.1187010
  21.4336680  10.0243620  63.3447200  20.6262110   8.8961510  63.9505500
  23.2806510  14.7244710  70.3479310  23.9248730  14.9304090  71.0252730
  23.6435950  13.9633110  69.8950160  24.5538590  12.7277060  69.0656760
  25.1960820  12.0270220  69.1788930  25.0787940  13.5075500  68.8853650
  28.3994310  13.0125680  58.7895900  28.1731890  12.2956120  59.3820540
  28.0090510  12.7638120  57.9517650  26.3276210  13.5271960  72.2692820
  26.6632450  14.1138650  72.9470740  25.4076550  13.3964670  72.4990610
  14.1810340  17.0392540  59.5640360  14.5407980  17.6381880  58.9097630
  14.0402680  17.5852430  60.3375390  27.9810560  10.9297620  60.4510060
  27.6932260  11.3910310  61.2387940  28.7762730  10.4695390  60.7194280
  14.1652200  15.3047400  74.0382760  14.2743320  14.3642140  73.8978150
  13.5132760  15.5702150  73.3896490  22.1564790  13.5763290  75.4380880
  21.8361660  12.8572530  75.9826570  21.4823150  14.2518360  75.5116940
  20.1978960  14.4223740  60.3814030  20.1889060  15.1553430  59.7658540
  19.2777320  14.1755320  60.4740990  15.7985600   9.6438630  61.1260790
  15.1913550  10.3837530  61.1356090  16.2734950   9.7337990  60.2998990
  25.3718390   3.8089450  70.8017680  25.7399210   2.9884660  71.1297250
  24.5116590   3.8691340  71.2173330  28.7380420   2.7646390  61.6105240
  28.1093580   2.8692060  60.8963470  28.2432340   2.9843170  62.3999120
  23.1838560  14.4851980  59.0439220  23.2850540  14.2815970  58.1141200
  22.2840300  14.2310260  59.2487000  20.7064450   5.0432340  63.0263120
  19.9980600   5.5118680  63.4676730  20.9908930   4.3854350  63.6608310
  22.3320380   6.4629040  71.0255650  22.8305630   6.9374860  71.6907500
  22.4743330   5.5392560  71.2325680  24.7379880   1.7683000  64.4658910
  24.6147660   1.7869130  63.5168420  25.6864440   1.8161940  64.5857310
  21.8256670  17.0038300  63.7386890  22.0798170  16.9659690  62.8166260
  20.8769150  16.8771630  63.7315140  18.9099470   3.3517420  60.4013830
  19.7590000   3.7887570  60.3354020  18.5430740   3.6637680  61.2285890
  29.5387240   2.6797000  71.8684040  29.0360840   3.4202400  72.2077850
  30.3543900   3.0681000  71.5520830  27.8309250   7.9230180  65.3145400
  26.8899390   7.9380410  65.4893090  28.1453320   7.1366140  65.7605700
  17.8090890   9.6049780  58.8749360  18.5754160   9.4931140  59.4374790
  17.8865580   8.9087750  58.2226130  16.5037650   7.0374850  59.5582250
  16.5841240   6.0902360  59.6699650  17.3957400   7.3681730  59.6642910
  29.8334830  15.0939030  66.9899660  29.9582250  15.9170200  67.4623470
  30.7000390  14.8829760  66.6423810  17.3052360  17.1870240  66.6616790
  18.0414840  16.6385700  66.9325360  17.6893280  18.0526250  66.5222780
  14.1897840  13.2543810  62.5358300  13.2637620  13.4964950  62.5263710
  14.6554270  14.0818070  62.4143050  20.4154670  16.3600550  58.4842360
  21.2083280  16.6489380  58.0324150  19.8959020  15.9292720  57.8054840
  26.5775640  16.2076470  74.4087190  27.5297390  16.1234490  74.3587430
  26.4303860  16.8718180  75.0820980  29.4684840  15.5870680  59.9079100
  29.1826350  15.1735820  59.0933280  29.2704390  16.5158390  59.7879620
  14.0308450   8.8589770  74.7938420  14.5347470   8.2797050  75.3654650
  13.2915870   9.1430000  75.3314790  20.9332070  11.5803960  58.3484710
  20.8282710  10.9656310  59.0746090  20.7656290  11.0569850  57.5647720
  21.0846390  10.2660760  74.3273940  20.3192060  10.8345760  74.2428610
  21.2662350   9.9736970  73.4342170  24.1734800  10.6423990  58.9526700
  23.6244900  11.0893290  59.5969440  24.7954060  10.1373240  59.4764370
  28.2269740  11.9966090  74.8848960  28.9679210  12.3341850  74.3816420
  27.4642420  12.1658150  74.3318730  19.8409920   9.6014910  60.8492000
  20.2626340   9.4354780  61.6923390  19.9660760   8.7915140  60.3547140
  18.0037340   5.5811460  73.6562980  17.4733800   5.0902410  73.0286320
  18.6725410   6.0095660  73.1220910  22.3537560   8.6252520  58.0969100
  22.8743220   7.9101540  57.7310250  23.0005960   9.2638390  58.3969610
  26.9015400  10.0480920  73.4204170  27.3156420  10.2026000  74.2694590
  25.9666400  10.1736140  73.5829950  27.3737570   7.3877080  75.4243320
  27.9558340   6.6329400  75.3363800  27.5499340   7.9184520  74.6474800
  18.4909640   2.5473830  73.7360270  18.3966510   1.9294580  73.0111140
  17.9107030   3.2740120  73.5090180  21.6630630  10.0001400  71.3900100
  22.0818740  10.8434130  71.2176340  20.7439260  10.1373440  71.1606880
  23.9994530   7.7317580  72.7737940  24.1190740   7.1358720  73.5132780
  24.8588530   7.7687270  72.3539240  26.3382430   8.2854770  71.3500450
  25.8117650   8.8097390  70.7465590  26.6813770   8.9182160  71.9810180
  18.7368820   5.6748140  57.7950160  18.5357880   4.8115500  58.1563500
  18.5660870   5.5881500  56.8571760  19.5138050  16.3054410  72.5057830
  18.9759140  17.0300470  72.1866530  19.7672010  15.8284750  71.7155170
  20.7663300   4.2738930  74.0313760  21.3562990   3.9654780  74.7191580
  19.9483540   3.8018680  74.1873660  25.5856730   3.8904740  74.2646780
  24.8972250   3.2286280  74.1996770  26.3062750   3.4443010  74.7095240
  17.5351620   2.7748760  57.7828040  17.8377520   2.7816190  56.8747190
  18.2746210   2.4246620  58.2795700  22.3700260  17.5405620  72.7644480
  22.2958960  18.4440760  73.0716850  21.4679100  17.2217520  72.7366550
  22.9185590  16.7064130  60.3870840  23.8136380  17.0449100  60.4089600
  22.9503220  15.9843540  59.7595120  16.5581750  12.0791180  58.6157840
  16.9956620  12.6220850  59.2715420  17.0429480  11.2538130  58.6254180
  13.7727550  14.8680210  66.0678100  14.1030560  14.0001270  65.8356740
  14.2018550  15.0738730  66.8983060  18.3689470  13.1989220  63.7280070
  18.0685010  13.0754190  64.6283980  18.2626960  12.3397810  63.3195800
  14.2617760  15.7350800  68.8059730  13.8248750  15.9151600  69.6383880
  14.8295440  16.4925420  68.6641450  29.8979940  15.2367800  73.0937040
  29.2981930  15.2960360  72.3500960  30.0273840  14.2972780  73.2233890
  31.1381390  12.9785620  58.4306750  30.3074350  13.0462270  58.9013980
  31.3153220  13.8689740  58.1273610  30.5937850   9.7233100  60.9340950
  31.3556760  10.2929750  61.0400640  30.6092220   9.1560300  61.7049260
  14.0942190   8.2471030  65.1648610  13.4391030   7.9782670  64.5208310
  14.9320140   8.1375510  64.7150590  31.5997820  10.5783200  65.7782880
  31.9706650   9.7950520  65.3718850  32.2399750  11.2672300  65.6000180
  28.5831580  11.9619780  71.1913200  27.7691420  12.3916940  71.4538990
  28.9905780  12.5738190  70.5782250  30.6457020  10.0167470  58.0913470
  30.9205860  10.9246350  57.9632690  30.4567760   9.9530000  59.0275460
  27.0432630   3.0412320  59.3867100  27.4617510   2.8543300  58.5463760
  26.7368690   2.1891370  59.6970030  30.5422360   7.9536460  63.0842900
  30.1665960   7.1864390  62.6524190  29.8125480   8.3359160  63.5717830
  15.1318120   8.6323600  69.7051950  15.4991160   8.5451000  70.5847970
  14.5628940   7.8690150  69.6058810  29.9321980   7.1007980  72.7182420
  29.7008070   6.8720730  71.8180370  30.1926530   8.0207530  72.6727310
  14.6834120   5.5432690  73.6110370  13.7890170   5.5099450  73.9504080
  15.2231670   5.7419480  74.3761620  28.3710050   2.3264410  75.4962120
  29.2480230   2.3347810  75.8796120  28.3830890   1.5895250  74.8854470
  13.3080270   5.4569960  61.1073940  12.4044350   5.7200160  60.9325600
  13.7920890   5.7281130  60.3273900  29.8173320   6.1793950  66.3850140
  30.3410800   5.6856600  65.7540310  30.4032740   6.3144310  67.1297710
  29.9963040   6.2633820  69.9069690  29.0465750   6.2297360  70.0214680
  30.1776050   7.1733930  69.6719460  15.8507480   4.5135500  59.0168320
  16.5599180   4.0918720  58.5315600  15.1347420   4.5810730  58.3851670
  29.3073290   5.4367300  62.3242550  29.8032410   5.2038170  63.1091430
  29.1089360   4.5979140  61.9080190  30.7360450   4.0728250  64.8580230
  30.6259730   3.9184290  65.7962500  31.4968040   3.5449190  64.6155640
  31.6250720   1.9036170  58.0986370  32.5500030   1.7717350  57.8904660
  31.6026510   1.9828990  59.0522820  31.6989210   2.6746830  60.7243080
  30.9040710   2.6091950  61.2535990  31.9032490   3.6097470  60.7128430
  28.6407630  16.7138380  64.7181470  29.2366700  16.3922950  64.0415890
  28.8985780  16.2410200  65.5094740  16.5470200  13.1456290  74.8672100
  16.5039830  12.7749200  75.7486560  16.6781210  14.0833860  75.0073920
  20.2476230  14.7015880  70.4681820  20.0067590  14.9690440  69.5812340
  21.1878870  14.8721610  70.5232680  31.5080390  16.7210260  71.2692460
  31.0138670  17.1179130  70.5519590  30.8993680  16.0959470  71.6629740
  16.3858230  16.0918540  71.9869880  15.7918550  15.9603240  72.7259920
  16.3782070  15.2556680  71.5211980  29.1919840  17.3633680  68.5479200
  28.7322810  18.1149490  68.1737220  28.5632300  16.6440150  68.4894000
  16.0170460  13.4576920  70.9377920  15.2904520  12.8382210  70.8703870
  16.0779610  13.8517530  70.0676000  19.6215560  15.6721920  67.7227330
  20.1380580  15.0609280  67.1975590  20.2712940  16.1750700  68.2138340
  22.3611060  16.5630410  68.5496310  22.6488870  16.3084710  67.6729320
  22.8734280  16.0107770  69.1401880  14.3000460  16.7751310  64.1474680
  14.1322500  16.1421990  64.8456570  13.4334970  16.9810710  63.7968870
  21.4642290   2.7207360  64.6408850  20.6516800   2.3464250  64.3004730
  21.9683930   1.9652440  64.9430040  15.9063160  15.4684540  61.5924820
  15.3810780  15.8492570  60.8886780  15.8307740  16.0935310  62.3134530
  22.4283420  17.4846510  75.9164510  23.3550730  17.2490780  75.9600470
  22.4133850  18.3118510  75.4350540  30.6628480  17.0272080  62.9138760
  30.8380670  16.3409820  62.2699680  29.9650050  17.5519130  62.5215430
  18.5056130  17.4166920  60.4674070  19.2374950  17.1326200  59.9197960
  18.7649800  17.1780200  61.3573450  17.6670920  13.5331650  60.4720400
  17.0379800  14.0016750  61.0206230  17.7818750  12.6880870  60.9066590
  25.1220640   7.5837310  46.6221600  25.0414690   6.6691920  46.3513310
  24.7085060   8.0804380  45.9161310  23.2538680   9.3616330  48.5030870
  22.4780780   8.8816770  48.7929440  23.9051610   8.6821980  48.3287030
  17.2704510   9.6736140  49.3806630  16.4389390   9.4184850  49.7803140
  17.8785490   9.7446910  50.1164550  27.2746110  13.7676520  47.2830000
  26.8127640  12.9963760  47.6117170  28.0871660  13.7942590  47.7882450
  17.2505770  13.7076230  49.5764650  17.5533810  12.8173970  49.3974870
  17.9949360  14.2646450  49.3486900  15.6796460   4.6338030  43.1649020
  14.7913160   4.9754000  43.0628900  15.9637650   4.4338350  42.2729850
  13.6429470   7.2343680  49.0488720  14.2145580   6.4665880  49.0492360
  13.6431010   7.5332440  48.1395330  23.5009420  16.0534530  46.9033990
  22.8820860  16.5092030  46.3328430  24.3561200  16.2085990  46.5023690
  22.6947670  12.0373520  48.5101030  22.6255950  11.0963460  48.3490160
  23.4567530  12.1274930  49.0823600  14.8854340   2.6428040  50.8357650
  14.7057180   1.7453790  51.1160410  14.4834420   3.1899910  51.5104600
  23.7252840   4.8443900  48.7369960  24.1017660   3.9715780  48.6243630
  23.6272350   5.1802600  47.8460400  17.8557850   3.2169530  44.1987400
  17.9624600   4.1173260  44.5056160  16.9450210   3.1687500  43.9082050
  27.5076960   2.3394340  45.6698300  28.3286580   1.8490910  45.7123780
  27.5411040   2.9292000  46.4230140  15.5041010   5.1388540  49.4439990
  16.1851120   5.4026910  50.0627390  15.1889060   4.2989410  49.7778000
  19.6965580   6.1855900  48.5312580  20.2043800   6.6836870  49.1717600
  20.2278820   5.4091100  48.3551940  31.7976510   4.3561090  52.2341930
  31.0928680   4.7442800  51.7157040  32.0634430   5.0511380  52.8362860
  24.3672770  10.9373770  44.2965900  23.7490040  11.4023220  43.7328620
  24.8796020  11.6301250  44.7135410  19.2304530  10.4649640  50.9749500
  18.8973910  11.0918560  51.6170570  19.4071210  10.9911520  50.1951170
  27.7438440   4.2794720  48.4425840  27.0394010   4.5679610  49.0228950
  28.1050600   5.0894830  48.0825400  17.6617010   2.5364420  50.8046450
  18.0033820   3.3806470  50.5100320  16.7232820   2.6848160  50.9211790
  18.4423630  12.4330440  52.7898680  19.0597630  13.1081520  52.5083130
  17.5816750  12.8418420  52.6986180  13.7355970  11.6230300  41.6705530
  13.3583950  12.1117400  40.9390430  13.9929040  12.2955580  42.3012060
  29.3601220  13.8969850  50.7053320  28.6764740  14.5668960  50.6969990
  29.8995510  14.0950500  49.9398180  30.8125360   3.7249510  48.8335050
  29.8650270   3.7588490  48.9650480  31.1375350   4.5388460  49.2184410
  26.8959960  15.7413980  49.4198500  26.9087120  15.3376270  48.5520760
  26.3435180  16.5161270  49.3159930  28.1905380  12.4630200  44.5088670
  28.0801710  11.5204530  44.6338090  28.1873630  12.8245840  45.3951430
  26.2945400  10.6443820  50.7481110  26.7114190  10.4303930  49.9134570
  27.0185220  10.9016610  51.3189730  23.7325660   8.0895520  43.8651160
  22.8054940   8.0232900  44.0939630  23.8850480   9.0275650  43.7506400
  23.7194740   4.3612520  40.8618320  22.7798410   4.5226480  40.9470780
  24.0378000   5.0798200  40.3154310  30.2407500   9.0431040  50.8397350
  29.4126130   9.1124130  50.3647480  30.8357980   9.6285350  50.3713180
  27.7622950   9.6515820  44.3686410  27.1435370   9.3135370  43.7212710
  27.7447400   9.0075580  45.0765600  27.2049510   5.8300360  51.7852220
  26.7920690   6.6554070  52.0392210  26.4725460   5.2445400  51.5928580
  19.3382300   8.6160260  46.6470890  18.9339300   7.9037510  46.1516790
  19.4245420   8.2713500  47.5358930  19.8064000  12.3027820  48.8110100
  19.5092290  11.6973290  48.1317880  20.7563820  12.3405130  48.6999460
  18.0510920   5.3903470  50.4269930  18.6025510   5.4998810  49.6523180
  18.5654430   5.7641070  51.1425160  27.8949610  15.8759690  52.4733200
  27.4180170  16.6831880  52.2805810  27.2111400  15.2238020  52.6259410
  18.8982430  12.0409510  55.4617900  18.0010960  12.2649480  55.7091300
  18.9235300  12.1644450  54.5129300  25.9387650   8.8902630  41.3759160
  26.3780930   8.0525060  41.2296980  26.6516070   9.5232030  41.4623300
  17.7253650   8.9122830  54.0375270  17.5861420   9.7845630  54.4062670
  16.8435010   8.5695640  53.8923210  24.0483030  13.8298700  45.3440400
  24.4878940  14.5723030  44.9295790  23.9869920  14.0725270  46.2679360
  19.5234000  14.8544530  56.2460420  19.4949430  15.2587480  55.3788850
  19.3598970  13.9254890  56.0832020  16.0386930   7.5105240  44.1477540
  15.9184530   8.2367330  43.5358810  15.7287820   6.7408150  43.6705450
  31.4748820  15.6371630  57.5424590  31.9508540  16.1154520  58.2213670
  32.0955980  15.5689120  56.8170090  13.6772300  10.6820380  49.9546180
  13.7552720  10.8169150  49.0101900  14.2913980   9.9736270  50.1474300
  14.9219930  12.3820570  46.3652360  14.5148010  12.5235160  45.5105960
  15.8132940  12.0980730  46.1623570  30.8782070  12.8284480  54.7024600
  31.0045130  12.5896360  53.7841780  30.9203450  11.9969020  55.1746680
  24.7398810  16.5312480  53.2719410  25.2543480  16.4420490  54.0741840
  23.8967890  16.8772180  53.5647320  26.7153210  16.8167820  42.7003410
  26.5554350  16.5270760  43.5985240  26.5499920  16.0407950  42.1648640
  19.1941590  16.5966350  44.4775030  19.0184070  15.6801890  44.2642830
  18.3397330  16.9553640  44.7172830  26.4179340  14.3255380  41.2601410
  25.7244500  14.3232670  40.6003690  27.1602200  13.9014700  40.8295580
  25.9829270  15.9518090  45.3349900  26.4386220  15.1707470  45.6488520
  26.3221790  16.6624910  45.8791080  30.7306080   4.8816940  55.6674340
  30.1150350   5.3896610  55.1389800  30.4102500   3.9815270  55.6100280
  13.7331820  11.7234550  52.4940640  13.8962860  11.2539910  51.6760010
  14.1984270  11.2158110  53.1589480  22.7920400   3.7208830  53.1336530
  22.3299770   3.9291850  53.9456470  22.3898510   2.9068180  52.8307200
  27.7924910   4.9417780  54.2633190  26.9418500   4.6423530  54.5842260
  27.6326700   5.1859790  53.3517010  24.8874620   6.4419530  56.3631980
  25.2128030   5.6083280  56.0234210  25.6754950   6.9648050  56.5110310
  18.2964810   5.9773880  45.2582460  18.0705730   5.7611050  46.1629080
  17.5157340   6.4102340  44.9128430  25.5262570   5.9837250  43.8573110
  24.9271460   6.7073050  43.6736730  26.0742180   5.9214030  43.0749560
  20.7364020   6.8759460  55.9242730  20.6407620   5.9354190  55.7743130
  21.5796000   7.0974530  55.5290800  24.1327440   4.6200790  45.8876390
  24.5257010   4.9372990  45.0745080  24.4944290   3.7412670  46.0020910
  15.8674560   3.2873130  54.0776510  15.4737950   4.1348340  54.2849290
  15.1792960   2.6499500  54.2685150  22.4419610   3.3708100  57.1473250
  21.7517930   3.1780300  57.7819340  23.1851910   3.6542740  57.6797550
  13.3561840   5.1521710  39.3209310  13.2736510   6.0952470  39.4624300
  13.0044900   5.0096620  38.4421660  24.7182580   7.2106540  49.9827170
  23.9863700   7.7193350  50.3317270  24.3206920   6.3936520  49.6815950
  21.1559970   3.8860740  48.3879660  21.1596030   3.4450690  47.5384200
  22.0511090   4.2078070  48.4951480  17.0062350   3.7687230  47.3473870
  16.6662400   4.2462460  48.1040920  16.2439670   3.3152350  46.9874970
  21.2180120   4.8872820  41.3786420  21.3392940   4.8459300  42.3272240
  20.8328630   5.7496970  41.2233150  25.1808490   2.6640220  49.3950110
  25.1981230   3.1148870  50.2391960  24.9324070   1.7645860  49.6083550
  20.2301620   7.1973960  40.7769720  19.6618520   6.7492210  40.1505630
  20.9390620   7.5566740  40.2434870  15.3070800  11.0985980  54.6536450
  14.9225590  10.4579650  55.2519410  15.6182990  11.8022100  55.2231180
  21.4567940   7.9462520  50.1345070  21.8238070   7.4721090  50.8806410
  21.2673000   8.8204090  50.4753410  14.3208430   2.6906210  46.2638540
  14.0355350   2.3261880  47.1017160  14.2587290   1.9586670  45.6501680
  19.2467310   6.9871160  52.4529280  18.9424380   7.8663140  52.6779640
  20.2013770   7.0470950  52.4886720  17.7749100  11.1932150  43.0496130
  17.0011360  10.6529770  42.8894850  18.5043730  10.6738760  42.7113890
  28.5337080  10.1897510  48.8422520  29.2536200  10.6852800  48.4518630
  28.3318900   9.5115400  48.1976390  23.9155880  10.2606570  54.7291520
  23.8493190   9.3402240  54.4749110  23.2861020  10.3582010  55.4436160
  26.7095410   5.9555120  41.2814070  27.5975030   6.2672350  41.1065410
  26.6800500   5.0827370  40.8894650  17.8186500  10.8612530  46.6874940
  18.3365170  10.0580790  46.6331830  17.3670520  10.7991670  47.5291770
  22.7056000  12.1278810  41.9602240  23.0471700  12.8721040  41.4645560
  21.8768710  12.4409930  42.3227070  15.3031040   7.8273900  53.6000640
  14.9445980   8.4927750  54.1873980  15.0085600   6.9957450  53.9713260
  18.5044160   8.2858140  56.4840190  18.2044300   8.4315320  55.5868010
  19.2755400   7.7263430  56.3913580  23.8472610  13.0827140  54.4795320
  23.8617150  12.1508100  54.2614230  23.1397710  13.1686900  55.1185090
  28.9809680   7.2666960  40.7493930  28.8973400   7.6981180  39.8990370
  29.7003870   7.7265310  41.1820750  30.0583820   9.7234480  53.8263900
  29.3332010  10.3163260  53.6293290  30.5859280   9.7158020  53.0277270
  30.0096930  14.1209220  43.4776060  29.3673090  13.4664840  43.7519780
  29.6227590  14.5264310  42.7016730  25.5883410  11.4494650  47.3247750
  25.9407230  10.8522780  46.6649120  24.7045740  11.1238880  47.4956000
  21.6746690  12.2092340  44.7318160  22.3617820  12.7561550  45.1125750
  20.8879110  12.7533070  44.7667770  13.8139090   7.8265160  40.2235240
  14.6833940   8.1089960  40.5071160  13.3229410   8.6401030  40.1084050
  20.9773900   9.2138370  44.3443520  21.4336680  10.0243620  44.5703710
  20.6262110   8.8961510  45.1762010  23.2806510  14.7244710  51.5735820
  23.9248730  14.9304090  52.2509240  23.6435950  13.9633110  51.1206670
  24.5538590  12.7277060  50.2913270  25.1960820  12.0270220  50.4045440
  25.0787940  13.5075500  50.1110160  28.3994310  13.0125680  40.0152410
  28.1731890  12.2956120  40.6077050  28.0090510  12.7638120  39.1774160
  26.3276210  13.5271960  53.4949330  26.6632450  14.1138650  54.1727250
  25.4076550  13.3964670  53.7247120  14.1810340  17.0392540  40.7896870
  14.5407980  17.6381880  40.1354140  14.0402680  17.5852430  41.5631900
  27.9810560  10.9297620  41.6766570  27.6932260  11.3910310  42.4644450
  28.7762730  10.4695390  41.9450790  14.1652200  15.3047400  55.2639270
  14.2743320  14.3642140  55.1234660  13.5132760  15.5702150  54.6153000
  22.1564790  13.5763290  56.6637390  21.8361660  12.8572530  57.2083080
  21.4823150  14.2518360  56.7373450  20.1978960  14.4223740  41.6070540
  20.1889060  15.1553430  40.9915050  19.2777320  14.1755320  41.6997500
  15.7985600   9.6438630  42.3517300  15.1913550  10.3837530  42.3612600
  16.2734950   9.7337990  41.5255500  25.3718390   3.8089450  52.0274190
  25.7399210   2.9884660  52.3553760  24.5116590   3.8691340  52.4429840
  28.7380420   2.7646390  42.8361750  28.1093580   2.8692060  42.1219980
  28.2432340   2.9843170  43.6255630  23.1838560  14.4851980  40.2695730
  23.2850540  14.2815970  39.3397710  22.2840300  14.2310260  40.4743510
  20.7064450   5.0432340  44.2519630  19.9980600   5.5118680  44.6933240
  20.9908930   4.3854350  44.8864820  22.3320380   6.4629040  52.2512160
  22.8305630   6.9374860  52.9164010  22.4743330   5.5392560  52.4582190
  24.7379880   1.7683000  45.6915420  24.6147660   1.7869130  44.7424930
  25.6864440   1.8161940  45.8113820  21.8256670  17.0038300  44.9643400
  22.0798170  16.9659690  44.0422770  20.8769150  16.8771630  44.9571650
  18.9099470   3.3517420  41.6270340  19.7590000   3.7887570  41.5610530
  18.5430740   3.6637680  42.4542400  29.5387240   2.6797000  53.0940550
  29.0360840   3.4202400  53.4334360  30.3543900   3.0681000  52.7777340
  27.8309250   7.9230180  46.5401910  26.8899390   7.9380410  46.7149600
  28.1453320   7.1366140  46.9862210  17.8090890   9.6049780  40.1005870
  18.5754160   9.4931140  40.6631300  17.8865580   8.9087750  39.4482640
  16.5037650   7.0374850  40.7838760  16.5841240   6.0902360  40.8956160
  17.3957400   7.3681730  40.8899420  29.8334830  15.0939030  48.2156170
  29.9582250  15.9170200  48.6879980  30.7000390  14.8829760  47.8680320
  17.3052360  17.1870240  47.8873300  18.0414840  16.6385700  48.1581870
  17.6893280  18.0526250  47.7479290  14.1897840  13.2543810  43.7614810
  13.2637620  13.4964950  43.7520220  14.6554270  14.0818070  43.6399560
  16.3110640  16.3716310  57.0758880  17.1123370  16.6928360  57.4894280
  15.7962460  16.0111890  57.7978790  20.4154670  16.3600550  39.7098870
  21.2083280  16.6489380  39.2580660  19.8959020  15.9292720  39.0311350
  25.1475270  12.4796180  57.0234290  24.5413430  12.5027780  56.2830040
  24.8429380  11.7479220  57.5601540  26.5775640  16.2076470  55.6343700
  27.5297390  16.1234490  55.5843940  26.4303860  16.8718180  56.3077490
  29.4684840  15.5870680  41.1335610  29.1826350  15.1735820  40.3189790
  29.2704390  16.5158390  41.0136130  14.0308450   8.8589770  56.0194930
  14.5347470   8.2797050  56.5911160  13.2915870   9.1430000  56.5571300
  20.9332070  11.5803960  39.5741220  20.8282710  10.9656310  40.3002600
  20.7656290  11.0569850  38.7904230  21.0846390  10.2660760  55.5530450
  20.3192060  10.8345760  55.4685120  21.2662350   9.9736970  54.6598680
  24.1734800  10.6423990  40.1783210  23.6244900  11.0893290  40.8225950
  24.7954060  10.1373240  40.7020880  28.2269740  11.9966090  56.1105470
  28.9679210  12.3341850  55.6072930  27.4642420  12.1658150  55.5575240
  16.0631530   7.0019360  56.9145000  16.1036870   6.7033230  57.8230230
  16.9177030   7.4026970  56.7552520  19.8409920   9.6014910  42.0748510
  20.2626340   9.4354780  42.9179900  19.9660760   8.7915140  41.5803650
  18.0037340   5.5811460  54.8819490  17.4733800   5.0902410  54.2542830
  18.6725410   6.0095660  54.3477420  22.3537560   8.6252520  39.3225610
  22.8743220   7.9101540  38.9566760  23.0005960   9.2638390  39.6226120
  26.9015400  10.0480920  54.6460680  27.3156420  10.2026000  55.4951100
  25.9666400  10.1736140  54.8086460  27.3737570   7.3877080  56.6499830
  27.9558340   6.6329400  56.5620310  27.5499340   7.9184520  55.8731310
  18.4909640   2.5473830  54.9616780  18.3966510   1.9294580  54.2367650
  17.9107030   3.2740120  54.7346690  21.6630630  10.0001400  52.6156610
  22.0818740  10.8434130  52.4432850  20.7439260  10.1373440  52.3863390
  23.9994530   7.7317580  53.9994450  24.1190740   7.1358720  54.7389290
  24.8588530   7.7687270  53.5795750  26.3382430   8.2854770  52.5756960
  25.8117650   8.8097390  51.9722100  26.6813770   8.9182160  53.2066690
  18.7368820   5.6748140  39.0206670  18.5357880   4.8115500  39.3820010
  18.5660870   5.5881500  38.0828270  19.5138050  16.3054410  53.7314340
  18.9759140  17.0300470  53.4123040  19.7672010  15.8284750  52.9411680
  20.7663300   4.2738930  55.2570270  21.3562990   3.9654780  55.9448090
  19.9483540   3.8018680  55.4130170  25.5856730   3.8904740  55.4903290
  24.8972250   3.2286280  55.4253280  26.3062750   3.4443010  55.9351750
  17.5351620   2.7748760  39.0084550  17.8377520   2.7816190  38.1003700
  18.2746210   2.4246620  39.5052210  22.3700260  17.5405620  53.9900990
  22.2958960  18.4440760  54.2973360  21.4679100  17.2217520  53.9623060
  22.9185590  16.7064130  41.6127350  23.8136380  17.0449100  41.6346110
  22.9503220  15.9843540  40.9851630  16.5581750  12.0791180  39.8414350
  16.9956620  12.6220850  40.4971930  17.0429480  11.2538130  39.8510690
  13.7727550  14.8680210  47.2934610  14.1030560  14.0001270  47.0613250
  14.2018550  15.0738730  48.1239570  18.3689470  13.1989220  44.9536580
  18.0685010  13.0754190  45.8540490  18.2626960  12.3397810  44.5452310
  14.2617760  15.7350800  50.0316240  13.8248750  15.9151600  50.8640390
  14.8295440  16.4925420  49.8897960  29.8979940  15.2367800  54.3193550
  29.2981930  15.2960360  53.5757470  30.0273840  14.2972780  54.4490400
  31.1381390  12.9785620  39.6563260  30.3074350  13.0462270  40.1270490
  31.3153220  13.8689740  39.3530120  30.5937850   9.7233100  42.1597460
  31.3556760  10.2929750  42.2657150  30.6092220   9.1560300  42.9305770
  14.0942190   8.2471030  46.3905120  13.4391030   7.9782670  45.7464820
  14.9320140   8.1375510  45.9407100  31.5997820  10.5783200  47.0039390
  31.9706650   9.7950520  46.5975360  32.2399750  11.2672300  46.8256690
  28.5831580  11.9619780  52.4169710  27.7691420  12.3916940  52.6795500
  28.9905780  12.5738190  51.8038760  30.6457020  10.0167470  39.3169980
  30.9205860  10.9246350  39.1889200  30.4567760   9.9530000  40.2531970
  27.0432630   3.0412320  40.6123610  27.4617510   2.8543300  39.7720270
  26.7368690   2.1891370  40.9226540  30.5422360   7.9536460  44.3099410
  30.1665960   7.1864390  43.8780700  29.8125480   8.3359160  44.7974340
  15.1318120   8.6323600  50.9308460  15.4991160   8.5451000  51.8104480
  14.5628940   7.8690150  50.8315320  29.9321980   7.1007980  53.9438930
  29.7008070   6.8720730  53.0436880  30.1926530   8.0207530  53.8983820
  14.6834120   5.5432690  54.8366880  13.7890170   5.5099450  55.1760590
  15.2231670   5.7419480  55.6018130  28.3710050   2.3264410  56.7218630
  29.2480230   2.3347810  57.1052630  28.3830890   1.5895250  56.1110980
  13.3080270   5.4569960  42.3330450  12.4044350   5.7200160  42.1582110
  13.7920890   5.7281130  41.5530410  29.8173320   6.1793950  47.6106650
  30.3410800   5.6856600  46.9796820  30.4032740   6.3144310  48.3554220
  29.9963040   6.2633820  51.1326200  29.0465750   6.2297360  51.2471190
  30.1776050   7.1733930  50.8975970  15.8507480   4.5135500  40.2424830
  16.5599180   4.0918720  39.7572110  15.1347420   4.5810730  39.6108180
  29.3073290   5.4367300  43.5499060  29.8032410   5.2038170  44.3347940
  29.1089360   4.5979140  43.1336700  30.7360450   4.0728250  46.0836740
  30.6259730   3.9184290  47.0219010  31.4968040   3.5449190  45.8412150
  31.6250720   1.9036170  39.3242880  32.5500030   1.7717350  39.1161170
  31.6026510   1.9828990  40.2779330  31.6989210   2.6746830  41.9499590
  30.9040710   2.6091950  42.4792500  31.9032490   3.6097470  41.9384940
  28.6407630  16.7138380  45.9437980  29.2366700  16.3922950  45.2672400
  28.8985780  16.2410200  46.7351250  16.5470200  13.1456290  56.0928610
  16.5039830  12.7749200  56.9743070  16.6781210  14.0833860  56.2330430
  20.2476230  14.7015880  51.6938330  20.0067590  14.9690440  50.8068850
  21.1878870  14.8721610  51.7489190  31.5080390  16.7210260  52.4948970
  31.0138670  17.1179130  51.7776100  30.8993680  16.0959470  52.8886250
  16.3858230  16.0918540  53.2126390  15.7918550  15.9603240  53.9516430
  16.3782070  15.2556680  52.7468490  29.1919840  17.3633680  49.7735710
  28.7322810  18.1149490  49.3993730  28.5632300  16.6440150  49.7150510
  16.0170460  13.4576920  52.1634430  15.2904520  12.8382210  52.0960380
  16.0779610  13.8517530  51.2932510  19.6215560  15.6721920  48.9483840
  20.1380580  15.0609280  48.4232100  20.2712940  16.1750700  49.4394850
  22.3611060  16.5630410  49.7752820  22.6488870  16.3084710  48.8985830
  22.8734280  16.0107770  50.3658390  14.3000460  16.7751310  45.3731190
  14.1322500  16.1421990  46.0713080  13.4334970  16.9810710  45.0225380
  21.4642290   2.7207360  45.8665360  20.6516800   2.3464250  45.5261240
  21.9683930   1.9652440  46.1686550  15.9063160  15.4684540  42.8181330
  15.3810780  15.8492570  42.1143290  15.8307740  16.0935310  43.5391040
  22.4283420  17.4846510  57.1421020  23.3550730  17.2490780  57.1856980
  22.4133850  18.3118510  56.6607050  30.6628480  17.0272080  44.1395270
  30.8380670  16.3409820  43.4956190  29.9650050  17.5519130  43.7471940
  18.5056130  17.4166920  41.6930580  19.2374950  17.1326200  41.1454470
  18.7649800  17.1780200  42.5829960  17.6670920  13.5331650  41.6976910
  17.0379800  14.0016750  42.2462740  17.7818750  12.6880870  42.1323100
  28.9960980  16.7116370  56.9662060  29.7886300  16.2165600  56.7588020
  29.2894130  17.3906510  57.5737670  25.1220640   7.5837310  27.8478110
  25.0414690   6.6691920  27.5769820  24.7085060   8.0804380  27.1417820
  23.2538680   9.3616330  29.7287380  22.4780780   8.8816770  30.0185950
  23.9051610   8.6821980  29.5543540  17.2704510   9.6736140  30.6063140
  16.4389390   9.4184850  31.0059650  17.8785490   9.7446910  31.3421060
  27.2746110  13.7676520  28.5086510  26.8127640  12.9963760  28.8373680
  28.0871660  13.7942590  29.0138960  17.2505770  13.7076230  30.8021160
  17.5533810  12.8173970  30.6231380  17.9949360  14.2646450  30.5743410
  15.6796460   4.6338030  24.3905530  14.7913160   4.9754000  24.2885410
  15.9637650   4.4338350  23.4986360  13.6429470   7.2343680  30.2745230
  14.2145580   6.4665880  30.2748870  13.6431010   7.5332440  29.3651840
  23.5009420  16.0534530  28.1290500  22.8820860  16.5092030  27.5584940
  24.3561200  16.2085990  27.7280200  22.6947670  12.0373520  29.7357540
  22.6255950  11.0963460  29.5746670  23.4567530  12.1274930  30.3080110
  14.8854340   2.6428040  32.0614160  14.7057180   1.7453790  32.3416920
  14.4834420   3.1899910  32.7361110  23.7252840   4.8443900  29.9626470
  24.1017660   3.9715780  29.8500140  23.6272350   5.1802600  29.0716910
  17.8557850   3.2169530  25.4243910  17.9624600   4.1173260  25.7312670
  16.9450210   3.1687500  25.1338560  27.5076960   2.3394340  26.8954810
  28.3286580   1.8490910  26.9380290  27.5411040   2.9292000  27.6486650
  15.5041010   5.1388540  30.6696500  16.1851120   5.4026910  31.2883900
  15.1889060   4.2989410  31.0034510  19.6965580   6.1855900  29.7569090
  20.2043800   6.6836870  30.3974110  20.2278820   5.4091100  29.5808450
  31.7976510   4.3561090  33.4598440  31.0928680   4.7442800  32.9413550
  32.0634430   5.0511380  34.0619370  24.3672770  10.9373770  25.5222410
  23.7490040  11.4023220  24.9585130  24.8796020  11.6301250  25.9391920
  19.2304530  10.4649640  32.2006010  18.8973910  11.0918560  32.8427080
  19.4071210  10.9911520  31.4207680  27.7438440   4.2794720  29.6682350
  27.0394010   4.5679610  30.2485460  28.1050600   5.0894830  29.3081910
  17.6617010   2.5364420  32.0302960  18.0033820   3.3806470  31.7356830
  16.7232820   2.6848160  32.1468300  18.4423630  12.4330440  34.0155190
  19.0597630  13.1081520  33.7339640  17.5816750  12.8418420  33.9242690
  13.7355970  11.6230300  22.8962040  13.3583950  12.1117400  22.1646940
  13.9929040  12.2955580  23.5268570  29.3601220  13.8969850  31.9309830
  28.6764740  14.5668960  31.9226500  29.8995510  14.0950500  31.1654690
  30.8125360   3.7249510  30.0591560  29.8650270   3.7588490  30.1906990
  31.1375350   4.5388460  30.4440920  26.8959960  15.7413980  30.6455010
  26.9087120  15.3376270  29.7777270  26.3435180  16.5161270  30.5416440
  28.1905380  12.4630200  25.7345180  28.0801710  11.5204530  25.8594600
  28.1873630  12.8245840  26.6207940  26.2945400  10.6443820  31.9737620
  26.7114190  10.4303930  31.1391080  27.0185220  10.9016610  32.5446240
  23.7325660   8.0895520  25.0907670  22.8054940   8.0232900  25.3196140
  23.8850480   9.0275650  24.9762910  23.7194740   4.3612520  22.0874830
  22.7798410   4.5226480  22.1727290  24.0378000   5.0798200  21.5410820
  30.2407500   9.0431040  32.0653860  29.4126130   9.1124130  31.5903990
  30.8357980   9.6285350  31.5969690  27.7622950   9.6515820  25.5942920
  27.1435370   9.3135370  24.9469220  27.7447400   9.0075580  26.3022110
  27.2049510   5.8300360  33.0108730  26.7920690   6.6554070  33.2648720
  26.4725460   5.2445400  32.8185090  19.3382300   8.6160260  27.8727400
  18.9339300   7.9037510  27.3773300  19.4245420   8.2713500  28.7615440
  19.8064000  12.3027820  30.0366610  19.5092290  11.6973290  29.3574390
  20.7563820  12.3405130  29.9255970  18.0510920   5.3903470  31.6526440
  18.6025510   5.4998810  30.8779690  18.5654430   5.7641070  32.3681670
  27.8949610  15.8759690  33.6989710  27.4180170  16.6831880  33.5062320
  27.2111400  15.2238020  33.8515920  18.8982430  12.0409510  36.6874410
  18.0010960  12.2649480  36.9347810  18.9235300  12.1644450  35.7385810
  25.9387650   8.8902630  22.6015670  26.3780930   8.0525060  22.4553490
  26.6516070   9.5232030  22.6879810  17.7253650   8.9122830  35.2631780
  17.5861420   9.7845630  35.6319180  16.8435010   8.5695640  35.1179720
  24.0483030  13.8298700  26.5696910  24.4878940  14.5723030  26.1552300
  23.9869920  14.0725270  27.4935870  19.5234000  14.8544530  37.4716930
  19.4949430  15.2587480  36.6045360  19.3598970  13.9254890  37.3088530
  16.0386930   7.5105240  25.3734050  15.9184530   8.2367330  24.7615320
  15.7287820   6.7408150  24.8961960  31.4748820  15.6371630  38.7681100
  31.9508540  16.1154520  39.4470180  32.0955980  15.5689120  38.0426600
  13.6772300  10.6820380  31.1802690  13.7552720  10.8169150  30.2358410
  14.2913980   9.9736270  31.3730810  14.9219930  12.3820570  27.5908870
  14.5148010  12.5235160  26.7362470  15.8132940  12.0980730  27.3880080
  30.8782070  12.8284480  35.9281110  31.0045130  12.5896360  35.0098290
  30.9203450  11.9969020  36.4003190  24.7398810  16.5312480  34.4975920
  25.2543480  16.4420490  35.2998350  23.8967890  16.8772180  34.7903830
  26.7153210  16.8167820  23.9259920  26.5554350  16.5270760  24.8241750
  26.5499920  16.0407950  23.3905150  19.1941590  16.5966350  25.7031540
  19.0184070  15.6801890  25.4899340  18.3397330  16.9553640  25.9429340
  26.4179340  14.3255380  22.4857920  25.7244500  14.3232670  21.8260200
  27.1602200  13.9014700  22.0552090  25.9829270  15.9518090  26.5606410
  26.4386220  15.1707470  26.8745030  26.3221790  16.6624910  27.1047590
  30.7306080   4.8816940  36.8930850  30.1150350   5.3896610  36.3646310
  30.4102500   3.9815270  36.8356790  13.7331820  11.7234550  33.7197150
  13.8962860  11.2539910  32.9016520  14.1984270  11.2158110  34.3845990
  22.7920400   3.7208830  34.3593040  22.3299770   3.9291850  35.1712980
  22.3898510   2.9068180  34.0563710  27.7924910   4.9417780  35.4889700
  26.9418500   4.6423530  35.8098770  27.6326700   5.1859790  34.5773520
  24.8874620   6.4419530  37.5888490  25.2128030   5.6083280  37.2490720
  25.6754950   6.9648050  37.7366820  18.2964810   5.9773880  26.4838970
  18.0705730   5.7611050  27.3885590  17.5157340   6.4102340  26.1384940
  25.5262570   5.9837250  25.0829620  24.9271460   6.7073050  24.8993240
  26.0742180   5.9214030  24.3006070  20.7364020   6.8759460  37.1499240
  20.6407620   5.9354190  36.9999640  21.5796000   7.0974530  36.7547310
  24.1327440   4.6200790  27.1132900  24.5257010   4.9372990  26.3001590
  24.4944290   3.7412670  27.2277420  15.8674560   3.2873130  35.3033020
  15.4737950   4.1348340  35.5105800  15.1792960   2.6499500  35.4941660
  22.4419610   3.3708100  38.3729760  21.7517930   3.1780300  39.0075850
  23.1851910   3.6542740  38.9054060  13.3561840   5.1521710  20.5465820
  13.2736510   6.0952470  20.6880810  13.0044900   5.0096620  19.6678170
  24.7182580   7.2106540  31.2083680  23.9863700   7.7193350  31.5573780
  24.3206920   6.3936520  30.9072460  21.1559970   3.8860740  29.6136170
  21.1596030   3.4450690  28.7640710  22.0511090   4.2078070  29.7207990
  17.0062350   3.7687230  28.5730380  16.6662400   4.2462460  29.3297430
  16.2439670   3.3152350  28.2131480  21.2180120   4.8872820  22.6042930
  21.3392940   4.8459300  23.5528750  20.8328630   5.7496970  22.4489660
  25.1808490   2.6640220  30.6206620  25.1981230   3.1148870  31.4648470
  24.9324070   1.7645860  30.8340060  20.2301620   7.1973960  22.0026230
  19.6618520   6.7492210  21.3762140  20.9390620   7.5566740  21.4691380
  15.3070800  11.0985980  35.8792960  14.9225590  10.4579650  36.4775920
  15.6182990  11.8022100  36.4487690  21.4567940   7.9462520  31.3601580
  21.8238070   7.4721090  32.1062920  21.2673000   8.8204090  31.7009920
  14.3208430   2.6906210  27.4895050  14.0355350   2.3261880  28.3273670
  14.2587290   1.9586670  26.8758190  19.2467310   6.9871160  33.6785790
  18.9424380   7.8663140  33.9036150  20.2013770   7.0470950  33.7143230
  17.7749100  11.1932150  24.2752640  17.0011360  10.6529770  24.1151360
  18.5043730  10.6738760  23.9370400  28.5337080  10.1897510  30.0679030
  29.2536200  10.6852800  29.6775140  28.3318900   9.5115400  29.4232900
  23.9155880  10.2606570  35.9548030  23.8493190   9.3402240  35.7005620
  23.2861020  10.3582010  36.6692670  26.7095410   5.9555120  22.5070580
  27.5975030   6.2672350  22.3321920  26.6800500   5.0827370  22.1151160
  17.8186500  10.8612530  27.9131450  18.3365170  10.0580790  27.8588340
  17.3670520  10.7991670  28.7548280  22.7056000  12.1278810  23.1858750
  23.0471700  12.8721040  22.6902070  21.8768710  12.4409930  23.5483580
  15.3031040   7.8273900  34.8257150  14.9445980   8.4927750  35.4130490
  15.0085600   6.9957450  35.1969770  18.5044160   8.2858140  37.7096700
  18.2044300   8.4315320  36.8124520  19.2755400   7.7263430  37.6170090
  23.8472610  13.0827140  35.7051830  23.8617150  12.1508100  35.4870740
  23.1397710  13.1686900  36.3441600  28.9809680   7.2666960  21.9750440
  28.8973400   7.6981180  21.1246880  29.7003870   7.7265310  22.4077260
  30.0583820   9.7234480  35.0520410  29.3332010  10.3163260  34.8549800
  30.5859280   9.7158020  34.2533780  30.0096930  14.1209220  24.7032570
  29.3673090  13.4664840  24.9776290  29.6227590  14.5264310  23.9273240
  25.5883410  11.4494650  28.5504260  25.9407230  10.8522780  27.8905630
  24.7045740  11.1238880  28.7212510  21.6746690  12.2092340  25.9574670
  22.3617820  12.7561550  26.3382260  20.8879110  12.7533070  25.9924280
  13.8139090   7.8265160  21.4491750  14.6833940   8.1089960  21.7327670
  13.3229410   8.6401030  21.3340560  20.9773900   9.2138370  25.5700030
  21.4336680  10.0243620  25.7960220  20.6262110   8.8961510  26.4018520
  23.2806510  14.7244710  32.7992330  23.9248730  14.9304090  33.4765750
  23.6435950  13.9633110  32.3463180  24.5538590  12.7277060  31.5169780
  25.1960820  12.0270220  31.6301950  25.0787940  13.5075500  31.3366670
  28.3994310  13.0125680  21.2408920  28.1731890  12.2956120  21.8333560
  28.0090510  12.7638120  20.4030670  26.3276210  13.5271960  34.7205840
  26.6632450  14.1138650  35.3983760  25.4076550  13.3964670  34.9503630
  14.1810340  17.0392540  22.0153380  14.5407980  17.6381880  21.3610650
  14.0402680  17.5852430  22.7888410  27.9810560  10.9297620  22.9023080
  27.6932260  11.3910310  23.6900960  28.7762730  10.4695390  23.1707300
  14.1652200  15.3047400  36.4895780  14.2743320  14.3642140  36.3491170
  13.5132760  15.5702150  35.8409510  22.1564790  13.5763290  37.8893900
  21.8361660  12.8572530  38.4339590  21.4823150  14.2518360  37.9629960
  20.1978960  14.4223740  22.8327050  20.1889060  15.1553430  22.2171560
  19.2777320  14.1755320  22.9254010  15.7985600   9.6438630  23.5773810
  15.1913550  10.3837530  23.5869110  16.2734950   9.7337990  22.7512010
  25.3718390   3.8089450  33.2530700  25.7399210   2.9884660  33.5810270
  24.5116590   3.8691340  33.6686350  28.7380420   2.7646390  24.0618260
  28.1093580   2.8692060  23.3476490  28.2432340   2.9843170  24.8512140
  23.1838560  14.4851980  21.4952240  23.2850540  14.2815970  20.5654220
  22.2840300  14.2310260  21.7000020  20.7064450   5.0432340  25.4776140
  19.9980600   5.5118680  25.9189750  20.9908930   4.3854350  26.1121330
  22.3320380   6.4629040  33.4768670  22.8305630   6.9374860  34.1420520
  22.4743330   5.5392560  33.6838700  24.7379880   1.7683000  26.9171930
  24.6147660   1.7869130  25.9681440  25.6864440   1.8161940  27.0370330
  21.8256670  17.0038300  26.1899910  22.0798170  16.9659690  25.2679280
  20.8769150  16.8771630  26.1828160  18.9099470   3.3517420  22.8526850
  19.7590000   3.7887570  22.7867040  18.5430740   3.6637680  23.6798910
  29.5387240   2.6797000  34.3197060  29.0360840   3.4202400  34.6590870
  30.3543900   3.0681000  34.0033850  27.8309250   7.9230180  27.7658420
  26.8899390   7.9380410  27.9406110  28.1453320   7.1366140  28.2118720
  17.8090890   9.6049780  21.3262380  18.5754160   9.4931140  21.8887810
  17.8865580   8.9087750  20.6739150  16.5037650   7.0374850  22.0095270
  16.5841240   6.0902360  22.1212670  17.3957400   7.3681730  22.1155930
  29.8334830  15.0939030  29.4412680  29.9582250  15.9170200  29.9136490
  30.7000390  14.8829760  29.0936830  17.3052360  17.1870240  29.1129810
  18.0414840  16.6385700  29.3838380  17.6893280  18.0526250  28.9735800
  14.1897840  13.2543810  24.9871320  13.2637620  13.4964950  24.9776730
  14.6554270  14.0818070  24.8656070  16.3110640  16.3716310  38.3015390
  17.1123370  16.6928360  38.7150790  15.7962460  16.0111890  39.0235300
  20.4154670  16.3600550  20.9355380  21.2083280  16.6489380  20.4837170
  19.8959020  15.9292720  20.2567860  25.1475270  12.4796180  38.2490800
  24.5413430  12.5027780  37.5086550  24.8429380  11.7479220  38.7858050
  26.5775640  16.2076470  36.8600210  27.5297390  16.1234490  36.8100450
  26.4303860  16.8718180  37.5334000  29.4684840  15.5870680  22.3592120
  29.1826350  15.1735820  21.5446300  29.2704390  16.5158390  22.2392640
  14.0308450   8.8589770  37.2451440  14.5347470   8.2797050  37.8167670
  13.2915870   9.1430000  37.7827810  20.9332070  11.5803960  20.7997730
  20.8282710  10.9656310  21.5259110  20.7656290  11.0569850  20.0160740
  21.0846390  10.2660760  36.7786960  20.3192060  10.8345760  36.6941630
  21.2662350   9.9736970  35.8855190  24.1734800  10.6423990  21.4039720
  23.6244900  11.0893290  22.0482460  24.7954060  10.1373240  21.9277390
  28.2269740  11.9966090  37.3361980  28.9679210  12.3341850  36.8329440
  27.4642420  12.1658150  36.7831750  16.0631530   7.0019360  38.1401510
  16.1036870   6.7033230  39.0486740  16.9177030   7.4026970  37.9809030
  19.8409920   9.6014910  23.3005020  20.2626340   9.4354780  24.1436410
  19.9660760   8.7915140  22.8060160  18.0037340   5.5811460  36.1076000
  17.4733800   5.0902410  35.4799340  18.6725410   6.0095660  35.5733930
  22.3537560   8.6252520  20.5482120  22.8743220   7.9101540  20.1823270
  23.0005960   9.2638390  20.8482630  26.9015400  10.0480920  35.8717190
  27.3156420  10.2026000  36.7207610  25.9666400  10.1736140  36.0342970
  27.3737570   7.3877080  37.8756340  27.9558340   6.6329400  37.7876820
  27.5499340   7.9184520  37.0987820  18.4909640   2.5473830  36.1873290
  18.3966510   1.9294580  35.4624160  17.9107030   3.2740120  35.9603200
  21.6630630  10.0001400  33.8413120  22.0818740  10.8434130  33.6689360
  20.7439260  10.1373440  33.6119900  23.9994530   7.7317580  35.2250960
  24.1190740   7.1358720  35.9645800  24.8588530   7.7687270  34.8052260
  26.3382430   8.2854770  33.8013470  25.8117650   8.8097390  33.1978610
  26.6813770   8.9182160  34.4323200  18.7368820   5.6748140  20.2463180
  18.5357880   4.8115500  20.6076520  18.5660870   5.5881500  19.3084780
  19.5138050  16.3054410  34.9570850  18.9759140  17.0300470  34.6379550
  19.7672010  15.8284750  34.1668190  20.7663300   4.2738930  36.4826780
  21.3562990   3.9654780  37.1704600  19.9483540   3.8018680  36.6386680
  25.5856730   3.8904740  36.7159800  24.8972250   3.2286280  36.6509790
  26.3062750   3.4443010  37.1608260  17.5351620   2.7748760  20.2341060
  17.8377520   2.7816190  19.3260210  18.2746210   2.4246620  20.7308720
  22.3700260  17.5405620  35.2157500  22.2958960  18.4440760  35.5229870
  21.4679100  17.2217520  35.1879570  22.9185590  16.7064130  22.8383860
  23.8136380  17.0449100  22.8602620  22.9503220  15.9843540  22.2108140
  16.5581750  12.0791180  21.0670860  16.9956620  12.6220850  21.7228440
  17.0429480  11.2538130  21.0767200  13.7727550  14.8680210  28.5191120
  14.1030560  14.0001270  28.2869760  14.2018550  15.0738730  29.3496080
  18.3689470  13.1989220  26.1793090  18.0685010  13.0754190  27.0797000
  18.2626960  12.3397810  25.7708820  14.2617760  15.7350800  31.2572750
  13.8248750  15.9151600  32.0896900  14.8295440  16.4925420  31.1154470
  29.8979940  15.2367800  35.5450060  29.2981930  15.2960360  34.8013980
  30.0273840  14.2972780  35.6746910  31.1381390  12.9785620  20.8819770
  30.3074350  13.0462270  21.3527000  31.3153220  13.8689740  20.5786630
  30.5937850   9.7233100  23.3853970  31.3556760  10.2929750  23.4913660
  30.6092220   9.1560300  24.1562280  14.0942190   8.2471030  27.6161630
  13.4391030   7.9782670  26.9721330  14.9320140   8.1375510  27.1663610
  31.5997820  10.5783200  28.2295900  31.9706650   9.7950520  27.8231870
  32.2399750  11.2672300  28.0513200  28.5831580  11.9619780  33.6426220
  27.7691420  12.3916940  33.9052010  28.9905780  12.5738190  33.0295270
  30.6457020  10.0167470  20.5426490  30.9205860  10.9246350  20.4145710
  30.4567760   9.9530000  21.4788480  27.0432630   3.0412320  21.8380120
  27.4617510   2.8543300  20.9976780  26.7368690   2.1891370  22.1483050
  30.5422360   7.9536460  25.5355920  30.1665960   7.1864390  25.1037210
  29.8125480   8.3359160  26.0230850  15.1318120   8.6323600  32.1564970
  15.4991160   8.5451000  33.0360990  14.5628940   7.8690150  32.0571830
  29.9321980   7.1007980  35.1695440  29.7008070   6.8720730  34.2693390
  30.1926530   8.0207530  35.1240330  14.6834120   5.5432690  36.0623390
  13.7890170   5.5099450  36.4017100  15.2231670   5.7419480  36.8274640
  28.3710050   2.3264410  37.9475140  29.2480230   2.3347810  38.3309140
  28.3830890   1.5895250  37.3367490  13.3080270   5.4569960  23.5586960
  12.4044350   5.7200160  23.3838620  13.7920890   5.7281130  22.7786920
  29.8173320   6.1793950  28.8363160  30.3410800   5.6856600  28.2053330
  30.4032740   6.3144310  29.5810730  29.9963040   6.2633820  32.3582710
  29.0465750   6.2297360  32.4727700  30.1776050   7.1733930  32.1232480
  15.8507480   4.5135500  21.4681340  16.5599180   4.0918720  20.9828620
  15.1347420   4.5810730  20.8364690  29.3073290   5.4367300  24.7755570
  29.8032410   5.2038170  25.5604450  29.1089360   4.5979140  24.3593210
  30.7360450   4.0728250  27.3093250  30.6259730   3.9184290  28.2475520
  31.4968040   3.5449190  27.0668660  31.6250720   1.9036170  20.5499390
  32.5500030   1.7717350  20.3417680  31.6026510   1.9828990  21.5035840
  31.6989210   2.6746830  23.1756100  30.9040710   2.6091950  23.7049010
  31.9032490   3.6097470  23.1641450  28.6407630  16.7138380  27.1694490
  29.2366700  16.3922950  26.4928910  28.8985780  16.2410200  27.9607760
  16.5470200  13.1456290  37.3185120  16.5039830  12.7749200  38.1999580
  16.6781210  14.0833860  37.4586940  20.2476230  14.7015880  32.9194840
  20.0067590  14.9690440  32.0325360  21.1878870  14.8721610  32.9745700
  31.5080390  16.7210260  33.7205480  31.0138670  17.1179130  33.0032610
  30.8993680  16.0959470  34.1142760  16.3858230  16.0918540  34.4382900
  15.7918550  15.9603240  35.1772940  16.3782070  15.2556680  33.9725000
  29.1919840  17.3633680  30.9992220  28.7322810  18.1149490  30.6250240
  28.5632300  16.6440150  30.9407020  16.0170460  13.4576920  33.3890940
  15.2904520  12.8382210  33.3216890  16.0779610  13.8517530  32.5189020
  19.6215560  15.6721920  30.1740350  20.1380580  15.0609280  29.6488610
  20.2712940  16.1750700  30.6651360  22.3611060  16.5630410  31.0009330
  22.6488870  16.3084710  30.1242340  22.8734280  16.0107770  31.5914900
  14.3000460  16.7751310  26.5987700  14.1322500  16.1421990  27.2969590
  13.4334970  16.9810710  26.2481890  21.4642290   2.7207360  27.0921870
  20.6516800   2.3464250  26.7517750  21.9683930   1.9652440  27.3943060
  15.9063160  15.4684540  24.0437840  15.3810780  15.8492570  23.3399800
  15.8307740  16.0935310  24.7647550  22.4283420  17.4846510  38.3677530
  23.3550730  17.2490780  38.4113490  22.4133850  18.3118510  37.8863560
  30.6628480  17.0272080  25.3651780  30.8380670  16.3409820  24.7212700
  29.9650050  17.5519130  24.9728450  18.5056130  17.4166920  22.9187090
  19.2374950  17.1326200  22.3710980  18.7649800  17.1780200  23.8086470
  17.6670920  13.5331650  22.9233420  17.0379800  14.0016750  23.4719250
  17.7818750  12.6880870  23.3579610  28.9960980  16.7116370  38.1918570
  29.7886300  16.2165600  37.9844530  29.2894130  17.3906510  38.7994180
  25.1220640   7.5837310   9.0734620  25.0414690   6.6691920   8.8026330
  24.7085060   8.0804380   8.3674330  23.2538680   9.3616330  10.9543890
  22.4780780   8.8816770  11.2442460  23.9051610   8.6821980  10.7800050
  17.2704510   9.6736140  11.8319650  16.4389390   9.4184850  12.2316160
  17.8785490   9.7446910  12.5677570  27.2746110  13.7676520   9.7343020
  26.8127640  12.9963760  10.0630190  28.0871660  13.7942590  10.2395470
  17.2505770  13.7076230  12.0277670  17.5533810  12.8173970  11.8487890
  17.9949360  14.2646450  11.7999920  15.6796460   4.6338030   5.6162040
  14.7913160   4.9754000   5.5141920  15.9637650   4.4338350   4.7242870
  13.6429470   7.2343680  11.5001740  14.2145580   6.4665880  11.5005380
  13.6431010   7.5332440  10.5908350  23.5009420  16.0534530   9.3547010
  22.8820860  16.5092030   8.7841450  24.3561200  16.2085990   8.9536710
  22.6947670  12.0373520  10.9614050  22.6255950  11.0963460  10.8003180
  23.4567530  12.1274930  11.5336620  14.8854340   2.6428040  13.2870670
  14.7057180   1.7453790  13.5673430  14.4834420   3.1899910  13.9617620
  23.7252840   4.8443900  11.1882980  24.1017660   3.9715780  11.0756650
  23.6272350   5.1802600  10.2973420  17.8557850   3.2169530   6.6500420
  17.9624600   4.1173260   6.9569180  16.9450210   3.1687500   6.3595070
  27.5076960   2.3394340   8.1211320  28.3286580   1.8490910   8.1636800
  27.5411040   2.9292000   8.8743160  15.5041010   5.1388540  11.8953010
  16.1851120   5.4026910  12.5140410  15.1889060   4.2989410  12.2291020
  19.6965580   6.1855900  10.9825600  20.2043800   6.6836870  11.6230620
  20.2278820   5.4091100  10.8064960  31.7976510   4.3561090  14.6854950
  31.0928680   4.7442800  14.1670060  32.0634430   5.0511380  15.2875880
  24.3672770  10.9373770   6.7478920  23.7490040  11.4023220   6.1841640
  24.8796020  11.6301250   7.1648430  19.2304530  10.4649640  13.4262520
  18.8973910  11.0918560  14.0683590  19.4071210  10.9911520  12.6464190
  27.7438440   4.2794720  10.8938860  27.0394010   4.5679610  11.4741970
  28.1050600   5.0894830  10.5338420  17.6617010   2.5364420  13.2559470
  18.0033820   3.3806470  12.9613340  16.7232820   2.6848160  13.3724810
  18.4423630  12.4330440  15.2411700  19.0597630  13.1081520  14.9596150
  17.5816750  12.8418420  15.1499200  13.7355970  11.6230300   4.1218550
  13.3583950  12.1117400   3.3903450  13.9929040  12.2955580   4.7525080
  29.3601220  13.8969850  13.1566340  28.6764740  14.5668960  13.1483010
  29.8995510  14.0950500  12.3911200  30.8125360   3.7249510  11.2848070
  29.8650270   3.7588490  11.4163500  31.1375350   4.5388460  11.6697430
  26.8959960  15.7413980  11.8711520  26.9087120  15.3376270  11.0033780
  26.3435180  16.5161270  11.7672950  28.1905380  12.4630200   6.9601690
  28.0801710  11.5204530   7.0851110  28.1873630  12.8245840   7.8464450
  26.2945400  10.6443820  13.1994130  26.7114190  10.4303930  12.3647590
  27.0185220  10.9016610  13.7702750  23.7325660   8.0895520   6.3164180
  22.8054940   8.0232900   6.5452650  23.8850480   9.0275650   6.2019420
  23.7194740   4.3612520   3.3131340  22.7798410   4.5226480   3.3983800
  24.0378000   5.0798200   2.7667330  30.2407500   9.0431040  13.2910370
  29.4126130   9.1124130  12.8160500  30.8357980   9.6285350  12.8226200
  27.7622950   9.6515820   6.8199430  27.1435370   9.3135370   6.1725730
  27.7447400   9.0075580   7.5278620  27.2049510   5.8300360  14.2365240
  26.7920690   6.6554070  14.4905230  26.4725460   5.2445400  14.0441600
  19.3382300   8.6160260   9.0983910  18.9339300   7.9037510   8.6029810
  19.4245420   8.2713500   9.9871950  19.8064000  12.3027820  11.2623120
  19.5092290  11.6973290  10.5830900  20.7563820  12.3405130  11.1512480
  18.0510920   5.3903470  12.8782950  18.6025510   5.4998810  12.1036200
  18.5654430   5.7641070  13.5938180  27.8949610  15.8759690  14.9246220
  27.4180170  16.6831880  14.7318830  27.2111400  15.2238020  15.0772430
  18.8982430  12.0409510  17.9130920  18.0010960  12.2649480  18.1604320
  18.9235300  12.1644450  16.9642320  25.9387650   8.8902630   3.8272180
  26.3780930   8.0525060   3.6810000  26.6516070   9.5232030   3.9136320
  17.7253650   8.9122830  16.4888290  17.5861420   9.7845630  16.8575690
  16.8435010   8.5695640  16.3436230  24.0483030  13.8298700   7.7953420
  24.4878940  14.5723030   7.3808810  23.9869920  14.0725270   8.7192380
  19.5234000  14.8544530  18.6973440  19.4949430  15.2587480  17.8301870
  19.3598970  13.9254890  18.5345040  16.0386930   7.5105240   6.5990560
  15.9184530   8.2367330   5.9871830  15.7287820   6.7408150   6.1218470
  31.4748820  15.6371630  19.9937610  31.9508540  16.1154520  20.6726690
  32.0955980  15.5689120  19.2683110  13.6772300  10.6820380  12.4059200
  13.7552720  10.8169150  11.4614920  14.2913980   9.9736270  12.5987320
  14.9219930  12.3820570   8.8165380  14.5148010  12.5235160   7.9618980
  15.8132940  12.0980730   8.6136590  30.8782070  12.8284480  17.1537620
  31.0045130  12.5896360  16.2354800  30.9203450  11.9969020  17.6259700
  24.7398810  16.5312480  15.7232430  25.2543480  16.4420490  16.5254860
  23.8967890  16.8772180  16.0160340  26.7153210  16.8167820   5.1516430
  26.5554350  16.5270760   6.0498260  26.5499920  16.0407950   4.6161660
  19.1941590  16.5966350   6.9288050  19.0184070  15.6801890   6.7155850
  18.3397330  16.9553640   7.1685850  26.4179340  14.3255380   3.7114430
  25.7244500  14.3232670   3.0516710  27.1602200  13.9014700   3.2808600
  25.9829270  15.9518090   7.7862920  26.4386220  15.1707470   8.1001540
  26.3221790  16.6624910   8.3304100  30.7306080   4.8816940  18.1187360
  30.1150350   5.3896610  17.5902820  30.4102500   3.9815270  18.0613300
  13.7331820  11.7234550  14.9453660  13.8962860  11.2539910  14.1273030
  14.1984270  11.2158110  15.6102500  22.7920400   3.7208830  15.5849550
  22.3299770   3.9291850  16.3969490  22.3898510   2.9068180  15.2820220
  27.7924910   4.9417780  16.7146210  26.9418500   4.6423530  17.0355280
  27.6326700   5.1859790  15.8030030  24.8874620   6.4419530  18.8145000
  25.2128030   5.6083280  18.4747230  25.6754950   6.9648050  18.9623330
  18.2964810   5.9773880   7.7095480  18.0705730   5.7611050   8.6142100
  17.5157340   6.4102340   7.3641450  25.5262570   5.9837250   6.3086130
  24.9271460   6.7073050   6.1249750  26.0742180   5.9214030   5.5262580
  20.7364020   6.8759460  18.3755750  20.6407620   5.9354190  18.2256150
  21.5796000   7.0974530  17.9803820  24.1327440   4.6200790   8.3389410
  24.5257010   4.9372990   7.5258100  24.4944290   3.7412670   8.4533930
  15.8674560   3.2873130  16.5289530  15.4737950   4.1348340  16.7362310
  15.1792960   2.6499500  16.7198170  22.4419610   3.3708100  19.5986270
  21.7517930   3.1780300  20.2332360  23.1851910   3.6542740  20.1310570
  24.7182580   7.2106540  12.4340190  23.9863700   7.7193350  12.7830290
  24.3206920   6.3936520  12.1328970  21.1559970   3.8860740  10.8392680
  21.1596030   3.4450690   9.9897220  22.0511090   4.2078070  10.9464500
  17.0062350   3.7687230   9.7986890  16.6662400   4.2462460  10.5553940
  16.2439670   3.3152350   9.4387990  21.2180120   4.8872820   3.8299440
  21.3392940   4.8459300   4.7785260  20.8328630   5.7496970   3.6746170
  25.1808490   2.6640220  11.8463130  25.1981230   3.1148870  12.6904980
  24.9324070   1.7645860  12.0596570  20.2301620   7.1973960   3.2282740
  19.6618520   6.7492210   2.6018650  20.9390620   7.5566740   2.6947890
  15.3070800  11.0985980  17.1049470  14.9225590  10.4579650  17.7032430
  15.6182990  11.8022100  17.6744200  21.4567940   7.9462520  12.5858090
  21.8238070   7.4721090  13.3319430  21.2673000   8.8204090  12.9266430
  14.3208430   2.6906210   8.7151560  14.0355350   2.3261880   9.5530180
  14.2587290   1.9586670   8.1014700  19.2467310   6.9871160  14.9042300
  18.9424380   7.8663140  15.1292660  20.2013770   7.0470950  14.9399740
  17.7749100  11.1932150   5.5009150  17.0011360  10.6529770   5.3407870
  18.5043730  10.6738760   5.1626910  28.5337080  10.1897510  11.2935540
  29.2536200  10.6852800  10.9031650  28.3318900   9.5115400  10.6489410
  23.9155880  10.2606570  17.1804540  23.8493190   9.3402240  16.9262130
  23.2861020  10.3582010  17.8949180  26.7095410   5.9555120   3.7327090
  27.5975030   6.2672350   3.5578430  26.6800500   5.0827370   3.3407670
  17.8186500  10.8612530   9.1387960  18.3365170  10.0580790   9.0844850
  17.3670520  10.7991670   9.9804790  22.7056000  12.1278810   4.4115260
  23.0471700  12.8721040   3.9158580  21.8768710  12.4409930   4.7740090
  15.3031040   7.8273900  16.0513660  14.9445980   8.4927750  16.6387000
  15.0085600   6.9957450  16.4226280  18.5044160   8.2858140  18.9353210
  18.2044300   8.4315320  18.0381030  19.2755400   7.7263430  18.8426600
  23.8472610  13.0827140  16.9308340  23.8617150  12.1508100  16.7127250
  23.1397710  13.1686900  17.5698110  28.9809680   7.2666960   3.2006950
  28.8973400   7.6981180   2.3503390  29.7003870   7.7265310   3.6333770
  30.0583820   9.7234480  16.2776920  29.3332010  10.3163260  16.0806310
  30.5859280   9.7158020  15.4790290  30.0096930  14.1209220   5.9289080
  29.3673090  13.4664840   6.2032800  29.6227590  14.5264310   5.1529750
  25.5883410  11.4494650   9.7760770  25.9407230  10.8522780   9.1162140
  24.7045740  11.1238880   9.9469020  21.6746690  12.2092340   7.1831180
  22.3617820  12.7561550   7.5638770  20.8879110  12.7533070   7.2180790
  13.8139090   7.8265160   2.6748260  14.6833940   8.1089960   2.9584180
  13.3229410   8.6401030   2.5597070  20.9773900   9.2138370   6.7956540
  21.4336680  10.0243620   7.0216730  20.6262110   8.8961510   7.6275030
  23.2806510  14.7244710  14.0248840  23.9248730  14.9304090  14.7022260
  23.6435950  13.9633110  13.5719690  24.5538590  12.7277060  12.7426290
  25.1960820  12.0270220  12.8558460  25.0787940  13.5075500  12.5623180
  28.3994310  13.0125680   2.4665430  28.1731890  12.2956120   3.0590070
  28.0090510  12.7638120   1.6287180  26.3276210  13.5271960  15.9462350
  26.6632450  14.1138650  16.6240270  25.4076550  13.3964670  16.1760140
  14.1810340  17.0392540   3.2409890  14.5407980  17.6381880   2.5867160
  14.0402680  17.5852430   4.0144920  27.9810560  10.9297620   4.1279590
  27.6932260  11.3910310   4.9157470  28.7762730  10.4695390   4.3963810
  14.1652200  15.3047400  17.7152290  14.2743320  14.3642140  17.5747680
  13.5132760  15.5702150  17.0666020  22.1564790  13.5763290  19.1150410
  21.8361660  12.8572530  19.6596100  21.4823150  14.2518360  19.1886470
  20.1978960  14.4223740   4.0583560  20.1889060  15.1553430   3.4428070
  19.2777320  14.1755320   4.1510520  15.7985600   9.6438630   4.8030320
  15.1913550  10.3837530   4.8125620  16.2734950   9.7337990   3.9768520
  25.3718390   3.8089450  14.4787210  25.7399210   2.9884660  14.8066780
  24.5116590   3.8691340  14.8942860  28.7380420   2.7646390   5.2874770
  28.1093580   2.8692060   4.5733000  28.2432340   2.9843170   6.0768650
  23.1838560  14.4851980   2.7208750  23.2850540  14.2815970   1.7910730
  22.2840300  14.2310260   2.9256530  20.7064450   5.0432340   6.7032650
  19.9980600   5.5118680   7.1446260  20.9908930   4.3854350   7.3377840
  22.3320380   6.4629040  14.7025180  22.8305630   6.9374860  15.3677030
  22.4743330   5.5392560  14.9095210  24.7379880   1.7683000   8.1428440
  24.6147660   1.7869130   7.1937950  25.6864440   1.8161940   8.2626840
  21.8256670  17.0038300   7.4156420  22.0798170  16.9659690   6.4935790
  20.8769150  16.8771630   7.4084670  18.9099470   3.3517420   4.0783360
  19.7590000   3.7887570   4.0123550  18.5430740   3.6637680   4.9055420
  29.5387240   2.6797000  15.5453570  29.0360840   3.4202400  15.8847380
  30.3543900   3.0681000  15.2290360  27.8309250   7.9230180   8.9914930
  26.8899390   7.9380410   9.1662620  28.1453320   7.1366140   9.4375230
  17.8090890   9.6049780   2.5518890  18.5754160   9.4931140   3.1144320
  17.8865580   8.9087750   1.8995660  16.5037650   7.0374850   3.2351780
  16.5841240   6.0902360   3.3469180  17.3957400   7.3681730   3.3412440
  29.8334830  15.0939030  10.6669190  29.9582250  15.9170200  11.1393000
  30.7000390  14.8829760  10.3193340  17.3052360  17.1870240  10.3386320
  18.0414840  16.6385700  10.6094890  17.6893280  18.0526250  10.1992310
  14.1897840  13.2543810   6.2127830  13.2637620  13.4964950   6.2033240
  14.6554270  14.0818070   6.0912580  16.3110640  16.3716310  19.5271900
  17.1123370  16.6928360  19.9407300  15.7962460  16.0111890  20.2491810
  20.4154670  16.3600550   2.1611890  21.2083280  16.6489380   1.7093680
  19.8959020  15.9292720   1.4824370  25.1475270  12.4796180  19.4747310
  24.5413430  12.5027780  18.7343060  24.8429380  11.7479220  20.0114560
  26.5775640  16.2076470  18.0856720  27.5297390  16.1234490  18.0356960
  26.4303860  16.8718180  18.7590510  29.4684840  15.5870680   3.5848630
  29.1826350  15.1735820   2.7702810  29.2704390  16.5158390   3.4649150
  14.0308450   8.8589770  18.4707950  14.5347470   8.2797050  19.0424180
  13.2915870   9.1430000  19.0084320  21.0846390  10.2660760  18.0043470
  20.3192060  10.8345760  17.9198140  21.2662350   9.9736970  17.1111700
  24.1734800  10.6423990   2.6296230  23.6244900  11.0893290   3.2738970
  24.7954060  10.1373240   3.1533900  28.2269740  11.9966090  18.5618490
  28.9679210  12.3341850  18.0585950  27.4642420  12.1658150  18.0088260
  16.0631530   7.0019360  19.3658020  16.1036870   6.7033230  20.2743250
  16.9177030   7.4026970  19.2065540  19.8409920   9.6014910   4.5261530
  20.2626340   9.4354780   5.3692920  19.9660760   8.7915140   4.0316670
  18.0037340   5.5811460  17.3332510  17.4733800   5.0902410  16.7055850
  18.6725410   6.0095660  16.7990440  26.9015400  10.0480920  17.0973700
  27.3156420  10.2026000  17.9464120  25.9666400  10.1736140  17.2599480
  27.3737570   7.3877080  19.1012850  27.9558340   6.6329400  19.0133330
  27.5499340   7.9184520  18.3244330  18.4909640   2.5473830  17.4129800
  18.3966510   1.9294580  16.6880670  17.9107030   3.2740120  17.1859710
  21.6630630  10.0001400  15.0669630  22.0818740  10.8434130  14.8945870
  20.7439260  10.1373440  14.8376410  23.9994530   7.7317580  16.4507470
  24.1190740   7.1358720  17.1902310  24.8588530   7.7687270  16.0308770
  26.3382430   8.2854770  15.0269980  25.8117650   8.8097390  14.4235120
  26.6813770   8.9182160  15.6579710  19.5138050  16.3054410  16.1827360
  18.9759140  17.0300470  15.8636060  19.7672010  15.8284750  15.3924700
  20.7663300   4.2738930  17.7083290  21.3562990   3.9654780  18.3961110
  19.9483540   3.8018680  17.8643190  25.5856730   3.8904740  17.9416310
  24.8972250   3.2286280  17.8766300  26.3062750   3.4443010  18.3864770
  22.3700260  17.5405620  16.4414010  22.2958960  18.4440760  16.7486380
  21.4679100  17.2217520  16.4136080  22.9185590  16.7064130   4.0640370
  23.8136380  17.0449100   4.0859130  22.9503220  15.9843540   3.4364650
  16.5581750  12.0791180   2.2927370  16.9956620  12.6220850   2.9484950
  17.0429480  11.2538130   2.3023710  13.7727550  14.8680210   9.7447630
  14.1030560  14.0001270   9.5126270  14.2018550  15.0738730  10.5752590
  18.3689470  13.1989220   7.4049600  18.0685010  13.0754190   8.3053510
  18.2626960  12.3397810   6.9965330  14.2617760  15.7350800  12.4829260
  13.8248750  15.9151600  13.3153410  14.8295440  16.4925420  12.3410980
  29.8979940  15.2367800  16.7706570  29.2981930  15.2960360  16.0270490
  30.0273840  14.2972780  16.9003420  31.1381390  12.9785620   2.1076280
  30.3074350  13.0462270   2.5783510  31.3153220  13.8689740   1.8043140
  30.5937850   9.7233100   4.6110480  31.3556760  10.2929750   4.7170170
  30.6092220   9.1560300   5.3818790  14.0942190   8.2471030   8.8418140
  13.4391030   7.9782670   8.1977840  14.9320140   8.1375510   8.3920120
  31.5997820  10.5783200   9.4552410  31.9706650   9.7950520   9.0488380
  32.2399750  11.2672300   9.2769710  28.5831580  11.9619780  14.8682730
  27.7691420  12.3916940  15.1308520  28.9905780  12.5738190  14.2551780
  30.6457020  10.0167470   1.7683000  30.9205860  10.9246350   1.6402220
  30.4567760   9.9530000   2.7044990  27.0432630   3.0412320   3.0636630
  27.4617510   2.8543300   2.2233290  26.7368690   2.1891370   3.3739560
  30.5422360   7.9536460   6.7612430  30.1665960   7.1864390   6.3293720
  29.8125480   8.3359160   7.2487360  15.1318120   8.6323600  13.3821480
  15.4991160   8.5451000  14.2617500  14.5628940   7.8690150  13.2828340
  29.9321980   7.1007980  16.3951950  29.7008070   6.8720730  15.4949900
  30.1926530   8.0207530  16.3496840  14.6834120   5.5432690  17.2879900
  13.7890170   5.5099450  17.6273610  15.2231670   5.7419480  18.0531150
  28.3710050   2.3264410  19.1731650  29.2480230   2.3347810  19.5565650
  28.3830890   1.5895250  18.5624000  13.3080270   5.4569960   4.7843470
  12.4044350   5.7200160   4.6095130  13.7920890   5.7281130   4.0043430
  29.8173320   6.1793950  10.0619670  30.3410800   5.6856600   9.4309840
  30.4032740   6.3144310  10.8067240  29.9963040   6.2633820  13.5839220
  29.0465750   6.2297360  13.6984210  30.1776050   7.1733930  13.3488990
  15.8507480   4.5135500   2.6937850  16.5599180   4.0918720   2.2085130
  15.1347420   4.5810730   2.0621200  29.3073290   5.4367300   6.0012080
  29.8032410   5.2038170   6.7860960  29.1089360   4.5979140   5.5849720
  30.7360450   4.0728250   8.5349760  30.6259730   3.9184290   9.4732030
  31.4968040   3.5449190   8.2925170  31.6250720   1.9036170   1.7755900
  32.5500030   1.7717350   1.5674190  31.6026510   1.9828990   2.7292350
  31.6989210   2.6746830   4.4012610  30.9040710   2.6091950   4.9305520
  31.9032490   3.6097470   4.3897960  28.6407630  16.7138380   8.3951000
  29.2366700  16.3922950   7.7185420  28.8985780  16.2410200   9.1864270
  16.5470200  13.1456290  18.5441630  16.5039830  12.7749200  19.4256090
  16.6781210  14.0833860  18.6843450  20.2476230  14.7015880  14.1451350
  20.0067590  14.9690440  13.2581870  21.1878870  14.8721610  14.2002210
  31.5080390  16.7210260  14.9461990  31.0138670  17.1179130  14.2289120
  30.8993680  16.0959470  15.3399270  16.3858230  16.0918540  15.6639410
  15.7918550  15.9603240  16.4029450  16.3782070  15.2556680  15.1981510
  29.1919840  17.3633680  12.2248730  28.7322810  18.1149490  11.8506750
  28.5632300  16.6440150  12.1663530  16.0170460  13.4576920  14.6147450
  15.2904520  12.8382210  14.5473400  16.0779610  13.8517530  13.7445530
  19.6215560  15.6721920  11.3996860  20.1380580  15.0609280  10.8745120
  20.2712940  16.1750700  11.8907870  22.3611060  16.5630410  12.2265840
  22.6488870  16.3084710  11.3498850  22.8734280  16.0107770  12.8171410
  14.3000460  16.7751310   7.8244210  14.1322500  16.1421990   8.5226100
  13.4334970  16.9810710   7.4738400  21.4642290   2.7207360   8.3178380
  20.6516800   2.3464250   7.9774260  21.9683930   1.9652440   8.6199570
  15.9063160  15.4684540   5.2694350  15.3810780  15.8492570   4.5656310
  15.8307740  16.0935310   5.9904060  22.4283420  17.4846510  19.5934040
  23.3550730  17.2490780  19.6370000  22.4133850  18.3118510  19.1120070
  30.6628480  17.0272080   6.5908290  30.8380670  16.3409820   5.9469210
  29.9650050  17.5519130   6.1984960  18.5056130  17.4166920   4.1443600
  19.2374950  17.1326200   3.5967490  18.7649800  17.1780200   5.0342980
  17.6670920  13.5331650   4.1489930  17.0379800  14.0016750   4.6975760
  17.7818750  12.6880870   4.5836120  28.9960980  16.7116370  19.4175080
  29.7886300  16.2165600  19.2101040  29.2894130  17.3906510  20.0250690
   6.3477150  82.6811270  65.3965090   6.2671200  81.7665880  65.1256800
   5.9341570  83.1778340  64.6904800   4.4795190  84.4590290  67.2774360
   3.7037290  83.9790730  67.5672930   5.1308120  83.7795940  67.1030520
   8.5002620  88.8650480  66.0573490   8.0384150  88.0937720  66.3860660
   9.3128170  88.8916550  66.5625940   3.9204180  87.1347480  67.2844520
   3.8512460  86.1937420  67.1233650   4.6824040  87.2248890  67.8567090
   4.9509350  79.9417860  67.5113450   5.3274170  79.0689740  67.3987120
   4.8528860  80.2776560  66.6203890   8.7333470  77.4368300  64.4441790
   9.5543090  76.9464870  64.4867270   8.7667550  78.0265960  65.1973630
  13.0233020  79.4535050  71.0085420  12.3185190  79.8416760  70.4900530
  13.2890940  80.1485340  71.6106350   5.5929280  86.0347730  63.0709390
   4.9746550  86.4997180  62.5072110   6.1052530  86.7275210  63.4878900
   8.9694950  79.3768680  67.2169330   8.2650520  79.6653570  67.7972440
   9.3307110  80.1868790  66.8568890  10.5857730  88.9943810  69.4796810
   9.9021250  89.6642920  69.4713480  11.1252020  89.1924460  68.7141670
  12.0381870  78.8223470  67.6078540  11.0906780  78.8562450  67.7393970
  12.3631860  79.6362420  67.9927900   9.4161890  87.5604160  63.2832160
   9.3058220  86.6178490  63.4081580   9.4130140  87.9219800  64.1694920
   7.5201910  85.7417780  69.5224600   7.9370700  85.5277890  68.6878060
   8.2441730  85.9990570  70.0933220   4.9582170  83.1869480  62.6394650
   4.0311450  83.1206860  62.8683120   5.1106990  84.1249610  62.5249890
   4.9451250  79.4586480  59.6361810   4.0054920  79.6200440  59.7214270
   5.2634510  80.1772160  59.0897800  11.4664010  84.1405000  69.6140840
  10.6382640  84.2098090  69.1390970  12.0614490  84.7259310  69.1456670
   8.9879460  84.7489780  63.1429900   8.3691880  84.4109330  62.4956200
   8.9703910  84.1049540  63.8509090   8.4306020  80.9274320  70.5595710
   8.0177200  81.7528030  70.8135700   7.6981970  80.3419360  70.3672070
   7.1644160  83.9876590  60.1502650   7.6037440  83.1499020  60.0040470
   7.8772580  84.6205990  60.2366790   5.2739540  88.9272660  64.1183890
   5.7135450  89.6696990  63.7039280   5.2126430  89.1699230  65.0422850
  10.7461300  75.2419400  58.4643690  10.4333960  75.3346230  59.3642760
  11.5073770  75.8200430  58.4141120  12.1038580  87.9258440  73.4768090
  12.2301640  87.6870320  72.5585270  12.1459960  87.0942980  73.9490170
   7.6435850  89.4229340  60.0344900   6.9501010  89.4206630  59.3747180
   8.3858710  88.9988660  59.6039070  11.9562590  79.9790900  74.4417830
  11.3406860  80.4870570  73.9133290  11.6359010  79.0789230  74.3843770
   4.0176910  78.8182790  71.9080020   3.5556280  79.0265810  72.7199960
   3.6155020  78.0042140  71.6050690   9.0181420  80.0391740  73.0376680
   8.1675010  79.7397490  73.3585750   8.8583210  80.2833750  72.1260500
   6.1131130  81.5393490  75.1375470   6.4384540  80.7057240  74.7977700
   6.9011460  82.0622010  75.2853800   2.8465920  75.5724970  61.1850530
   2.2220100  75.5684840  61.9103840   2.7596040  74.7055930  60.7886500
   1.7683000  76.4961600  68.1634300   2.0655330  77.4024430  68.0826320
   2.3168560  76.0080380  67.5493870   6.7519080  81.0811210  62.6316600
   6.1527970  81.8047010  62.4480220   7.2998690  81.0187990  61.8493050
   1.9620530  81.9733420  74.6986220   1.8664130  81.0328150  74.5486620
   2.8052510  82.1948490  74.3034290   5.3583950  79.7174750  64.6619880
   5.7513520  80.0346950  63.8488570   5.7200800  78.8386630  64.7764400
   5.9439090  82.3080500  68.7570660   5.2120210  82.8167310  69.1060760
   5.5463430  81.4910480  68.4559440   2.3816480  78.9834700  67.1623150
   2.3852540  78.5424650  66.3127690   3.2767600  79.3052030  67.2694970
   2.4436630  79.9846780  60.1529910   2.5649450  79.9433260  61.1015730
   2.0585140  80.8470930  59.9976640   6.4065000  77.7614180  68.1693600
   6.4237740  78.2122830  69.0135450   6.1580580  76.8619820  68.3827040
   9.8335750  75.1746360  74.0079980  10.1581520  74.4436020  74.5337960
   9.8692260  74.8560000  73.1060970   2.6824450  83.0436480  68.9088560
   3.0494580  82.5695050  69.6549900   2.4929510  83.9178050  69.2496900
   9.7593590  85.2871470  67.6166010  10.4792710  85.7826760  67.2262120
   9.5575410  84.6089360  66.9719880   5.2203530  76.6809430  61.7595400
   4.4068140  76.1822600  61.6840710   5.0265480  77.5207680  61.3431750
   5.1412390  85.3580530  73.5035010   5.0749700  84.4376200  73.2492600
   4.5117530  85.4555970  74.2179650   7.9351920  81.0529080  60.0557560
   8.8231540  81.3646310  59.8808900   7.9057010  80.1801330  59.6638140
   3.9312510  87.2252770  60.7345730   4.2728210  87.9695000  60.2389050
   3.1025220  87.5383890  61.0970560   5.0729120  88.1801100  73.2538810
   5.0873660  87.2482060  73.0357720   4.3654220  88.2660860  73.8928580
  10.2066190  82.3640920  59.5237420  10.1229910  82.7955140  58.6733860
  10.9260380  82.8239270  59.9564240  11.2840330  84.8208440  72.6007390
  10.5588520  85.4137220  72.4036780  11.8115790  84.8131980  71.8020760
  11.2353440  89.2183180  62.2519550  10.5929600  88.5638800  62.5263270
  10.8484100  89.6238270  61.4760220   6.8139920  86.5468610  66.0991240
   7.1663740  85.9496740  65.4392610   5.9302250  86.2212840  66.2699490
   2.9003200  87.3066300  63.5061650   3.5874330  87.8535510  63.8869240
   2.1135620  87.8507030  63.5411260   2.2030410  84.3112330  63.1187010
   2.6593190  85.1217580  63.3447200   1.8518620  83.9935470  63.9505500
   4.5063020  89.8218670  70.3479310   5.1505240  90.0278050  71.0252730
   4.8692460  89.0607070  69.8950160   5.7795100  87.8251020  69.0656760
   6.4217330  87.1244180  69.1788930   6.3044450  88.6049460  68.8853650
   9.6250820  88.1099640  58.7895900   9.3988400  87.3930080  59.3820540
   9.2347020  87.8612080  57.9517650   7.5532720  88.6245920  72.2692820
   7.8888960  89.2112610  72.9470740   6.6333060  88.4938630  72.4990610
   9.2067070  86.0271580  60.4510060   8.9188770  86.4884270  61.2387940
  10.0019240  85.5669350  60.7194280   3.3821300  88.6737250  75.4380880
   3.0618170  87.9546490  75.9826570   2.7079660  89.3492320  75.5116940
   6.5974900  78.9063410  70.8017680   6.9655720  78.0858620  71.1297250
   5.7373100  78.9665300  71.2173330   9.9636930  77.8620350  61.6105240
   9.3350090  77.9666020  60.8963470   9.4688850  78.0817130  62.3999120
   4.4095070  89.5825940  59.0439220   4.5107050  89.3789930  58.1141200
   3.5096810  89.3284220  59.2487000   3.5576890  81.5603000  71.0255650
   4.0562140  82.0348820  71.6907500   3.6999840  80.6366520  71.2325680
   5.9636390  76.8656960  64.4658910   5.8404170  76.8843090  63.5168420
   6.9120950  76.9135900  64.5857310  10.7643750  77.7770960  71.8684040
  10.2617350  78.5176360  72.2077850  11.5800410  78.1654960  71.5520830
   9.0565760  83.0204140  65.3145400   8.1155900  83.0354370  65.4893090
   9.3709830  82.2340100  65.7605700   2.1588580  86.6777920  58.3484710
   2.0539220  86.0630270  59.0746090   1.9912800  86.1543810  57.5647720
   5.3991310  85.7397950  58.9526700   4.8501410  86.1867250  59.5969440
   6.0210570  85.2347200  59.4764370   9.4526250  87.0940050  74.8848960
  10.1935720  87.4315810  74.3816420   8.6898930  87.2632110  74.3318730
   3.5794070  83.7226480  58.0969100   4.0999730  83.0075500  57.7310250
   4.2262470  84.3612350  58.3969610   8.1271910  85.1454880  73.4204170
   8.5412930  85.2999960  74.2694590   7.1922910  85.2710100  73.5829950
   8.5994080  82.4851040  75.4243320   9.1814850  81.7303360  75.3363800
   8.7755850  83.0158480  74.6474800   2.4827590  76.2021030  70.7687660
   2.0344890  76.2245290  69.9233210   1.8492790  75.8040050  71.3657960
   2.8887140  85.0975360  71.3900100   3.3075250  85.9408090  71.2176340
   1.9695770  85.2347400  71.1606880   5.2251040  82.8291540  72.7737940
   5.3447250  82.2332680  73.5132780   6.0845040  82.8661230  72.3539240
   7.5638940  83.3828730  71.3500450   7.0374160  83.9071350  70.7465590
   7.9070280  84.0156120  71.9810180   6.8113240  78.9878700  74.2646780
   6.1228760  78.3260240  74.1996770   7.5319260  78.5416970  74.7095240
   7.4413640  75.5830330  60.3237040   7.7215930  74.7398230  60.6796460
   6.6679370  75.8153440  60.8375790  11.1236450  90.3341760  73.0937040
  10.5238440  90.3934320  72.3500960  11.2530350  89.3946740  73.2233890
  12.3637900  88.0759580  58.4306750  11.5330860  88.1436230  58.9013980
  12.5409730  88.9663700  58.1273610  11.8194360  84.8207060  60.9340950
  12.5813270  85.3903710  61.0400640  11.8348730  84.2534260  61.7049260
  12.8254330  85.6757160  65.7782880  13.1963160  84.8924480  65.3718850
  13.4656260  86.3646260  65.6000180   9.8088090  87.0593740  71.1913200
   8.9947930  87.4890900  71.4538990  10.2162290  87.6712150  70.5782250
  11.8713530  85.1141430  58.0913470  12.1462370  86.0220310  57.9632690
  11.6824270  85.0503960  59.0275460   8.2689140  78.1386280  59.3867100
   8.6874020  77.9517260  58.5463760   7.9625200  77.2865330  59.6970030
  11.7678870  83.0510420  63.0842900  11.3922470  82.2838350  62.6524190
  11.0381990  83.4333120  63.5717830  11.1578490  82.1981940  72.7182420
  10.9264580  81.9694690  71.8180370  11.4183040  83.1181490  72.6727310
   9.5966560  77.4238370  75.4962120  10.4736740  77.4321770  75.8796120
   9.6087400  76.6869210  74.8854470  11.0429830  81.2767910  66.3850140
  11.5667310  80.7830560  65.7540310  11.6289250  81.4118270  67.1297710
  11.2219550  81.3607780  69.9069690  10.2722260  81.3271320  70.0214680
  11.4032560  82.2707890  69.6719460  10.5329800  80.5341260  62.3242550
  11.0288920  80.3012130  63.1091430  10.3345870  79.6953100  61.9080190
  11.9616960  79.1702210  64.8580230  11.8516240  79.0158250  65.7962500
  12.7224550  78.6423150  64.6155640  10.3082680  75.1096340  71.3163230
  10.9454900  75.7230480  71.6822420  10.4557570  75.1457000  70.3712460
  12.8507230  77.0010130  58.0986370  13.7756540  76.8691310  57.8904660
  12.8283020  77.0802950  59.0522820  12.9245720  77.7720790  60.7243080
  12.1297220  77.7065910  61.2535990  13.1289000  78.7071430  60.7128430
   3.6787160  76.2622530  74.2238330   3.6176050  76.8544360  74.9733740
   4.6187540  76.1548490  74.0788590   6.3161720  75.9192590  73.8630620
   6.9302130  76.2371880  73.2011700   6.8611280  75.4341180  74.4826480
   7.0569760  74.4824730  70.1899910   6.1829600  74.8159840  69.9872840
   6.9480510  74.0097910  71.0151780   7.9641740  76.6895600  71.5741630
   7.6355100  75.8747360  71.1943360   8.9124040  76.6465410  71.4507320
   4.8044580  75.3994570  69.1292820   4.0216370  75.8740070  69.4089580
   4.5107510  74.4949400  69.0206000   9.3565650  76.1017670  67.1741910
   9.7973740  76.0462770  66.3263510   9.0873240  77.0175680  67.2452090
  11.2204220  75.7332910  65.1850730  11.1592620  74.7894130  65.0381750
  11.9996250  75.8413000  65.7304190   2.6898800  77.8181320  64.6408850
   1.8773310  77.4438210  64.3004730   3.1940440  77.0626400  64.9430040
   7.1923780  74.4823770  65.8791920   7.7953150  75.0543980  66.3540440
   6.4516770  75.0463210  65.6565820  10.3358380  74.8845330  61.1532200
  10.5309010  75.7828780  61.4199630   9.5488250  74.6532410  61.6465150
   6.3477150  82.6811270  46.6221600   6.2671200  81.7665880  46.3513310
   5.9341570  83.1778340  45.9161310   4.4795190  84.4590290  48.5030870
   3.7037290  83.9790730  48.7929440   5.1308120  83.7795940  48.3287030
   8.5002620  88.8650480  47.2830000   8.0384150  88.0937720  47.6117170
   9.3128170  88.8916550  47.7882450   3.9204180  87.1347480  48.5101030
   3.8512460  86.1937420  48.3490160   4.6824040  87.2248890  49.0823600
   4.9509350  79.9417860  48.7369960   5.3274170  79.0689740  48.6243630
   4.8528860  80.2776560  47.8460400   8.7333470  77.4368300  45.6698300
   9.5543090  76.9464870  45.7123780   8.7667550  78.0265960  46.4230140
  13.0233020  79.4535050  52.2341930  12.3185190  79.8416760  51.7157040
  13.2890940  80.1485340  52.8362860   5.5929280  86.0347730  44.2965900
   4.9746550  86.4997180  43.7328620   6.1052530  86.7275210  44.7135410
   8.9694950  79.3768680  48.4425840   8.2650520  79.6653570  49.0228950
   9.3307110  80.1868790  48.0825400  10.5857730  88.9943810  50.7053320
   9.9021250  89.6642920  50.6969990  11.1252020  89.1924460  49.9398180
  12.0381870  78.8223470  48.8335050  11.0906780  78.8562450  48.9650480
  12.3631860  79.6362420  49.2184410   9.4161890  87.5604160  44.5088670
   9.3058220  86.6178490  44.6338090   9.4130140  87.9219800  45.3951430
   7.5201910  85.7417780  50.7481110   7.9370700  85.5277890  49.9134570
   8.2441730  85.9990570  51.3189730   4.9582170  83.1869480  43.8651160
   4.0311450  83.1206860  44.0939630   5.1106990  84.1249610  43.7506400
   4.9451250  79.4586480  40.8618320   4.0054920  79.6200440  40.9470780
   5.2634510  80.1772160  40.3154310  11.4664010  84.1405000  50.8397350
  10.6382640  84.2098090  50.3647480  12.0614490  84.7259310  50.3713180
   8.9879460  84.7489780  44.3686410   8.3691880  84.4109330  43.7212710
   8.9703910  84.1049540  45.0765600   8.4306020  80.9274320  51.7852220
   8.0177200  81.7528030  52.0392210   7.6981970  80.3419360  51.5928580
   7.1644160  83.9876590  41.3759160   7.6037440  83.1499020  41.2296980
   7.8772580  84.6205990  41.4623300   5.2739540  88.9272660  45.3440400
   5.7135450  89.6696990  44.9295790   5.2126430  89.1699230  46.2679360
  10.7461300  75.2419400  39.6900200  10.4333960  75.3346230  40.5899270
  11.5073770  75.8200430  39.6397630  12.1038580  87.9258440  54.7024600
  12.2301640  87.6870320  53.7841780  12.1459960  87.0942980  55.1746680
   7.6435850  89.4229340  41.2601410   6.9501010  89.4206630  40.6003690
   8.3858710  88.9988660  40.8295580  11.9562590  79.9790900  55.6674340
  11.3406860  80.4870570  55.1389800  11.6359010  79.0789230  55.6100280
   4.0176910  78.8182790  53.1336530   3.5556280  79.0265810  53.9456470
   3.6155020  78.0042140  52.8307200   9.0181420  80.0391740  54.2633190
   8.1675010  79.7397490  54.5842260   8.8583210  80.2833750  53.3517010
   6.1131130  81.5393490  56.3631980   6.4384540  80.7057240  56.0234210
   6.9011460  82.0622010  56.5110310   2.8465920  75.5724970  42.4107040
   2.2220100  75.5684840  43.1360350   2.7596040  74.7055930  42.0143010
   1.7683000  76.4961600  49.3890810   2.0655330  77.4024430  49.3082830
   2.3168560  76.0080380  48.7750380   6.7519080  81.0811210  43.8573110
   6.1527970  81.8047010  43.6736730   7.2998690  81.0187990  43.0749560
   1.9620530  81.9733420  55.9242730   1.8664130  81.0328150  55.7743130
   2.8052510  82.1948490  55.5290800   5.3583950  79.7174750  45.8876390
   5.7513520  80.0346950  45.0745080   5.7200800  78.8386630  46.0020910
   3.6676120  78.4682060  57.1473250   2.9774440  78.2754260  57.7819340
   4.4108420  78.7516700  57.6797550   5.9439090  82.3080500  49.9827170
   5.2120210  82.8167310  50.3317270   5.5463430  81.4910480  49.6815950
   2.3816480  78.9834700  48.3879660   2.3852540  78.5424650  47.5384200
   3.2767600  79.3052030  48.4951480   2.4436630  79.9846780  41.3786420
   2.5649450  79.9433260  42.3272240   2.0585140  80.8470930  41.2233150
   6.4065000  77.7614180  49.3950110   6.4237740  78.2122830  50.2391960
   6.1580580  76.8619820  49.6083550   9.8335750  75.1746360  55.2336490
  10.1581520  74.4436020  55.7594470   9.8692260  74.8560000  54.3317480
   2.6824450  83.0436480  50.1345070   3.0494580  82.5695050  50.8806410
   2.4929510  83.9178050  50.4753410   9.7593590  85.2871470  48.8422520
  10.4792710  85.7826760  48.4518630   9.5575410  84.6089360  48.1976390
   5.2203530  76.6809430  42.9851910   4.4068140  76.1822600  42.9097220
   5.0265480  77.5207680  42.5688260   5.1412390  85.3580530  54.7291520
   5.0749700  84.4376200  54.4749110   4.5117530  85.4555970  55.4436160
   7.9351920  81.0529080  41.2814070   8.8231540  81.3646310  41.1065410
   7.9057010  80.1801330  40.8894650   3.9312510  87.2252770  41.9602240
   4.2728210  87.9695000  41.4645560   3.1025220  87.5383890  42.3227070
   5.0729120  88.1801100  54.4795320   5.0873660  87.2482060  54.2614230
   4.3654220  88.2660860  55.1185090  10.2066190  82.3640920  40.7493930
  10.1229910  82.7955140  39.8990370  10.9260380  82.8239270  41.1820750
  11.2840330  84.8208440  53.8263900  10.5588520  85.4137220  53.6293290
  11.8115790  84.8131980  53.0277270  11.2353440  89.2183180  43.4776060
  10.5929600  88.5638800  43.7519780  10.8484100  89.6238270  42.7016730
   6.8139920  86.5468610  47.3247750   7.1663740  85.9496740  46.6649120
   5.9302250  86.2212840  47.4956000   2.9003200  87.3066300  44.7318160
   3.5874330  87.8535510  45.1125750   2.1135620  87.8507030  44.7667770
   2.2030410  84.3112330  44.3443520   2.6593190  85.1217580  44.5703710
   1.8518620  83.9935470  45.1762010   4.5063020  89.8218670  51.5735820
   5.1505240  90.0278050  52.2509240   4.8692460  89.0607070  51.1206670
   5.7795100  87.8251020  50.2913270   6.4217330  87.1244180  50.4045440
   6.3044450  88.6049460  50.1110160   9.6250820  88.1099640  40.0152410
   9.3988400  87.3930080  40.6077050   9.2347020  87.8612080  39.1774160
   7.5532720  88.6245920  53.4949330   7.8888960  89.2112610  54.1727250
   6.6333060  88.4938630  53.7247120   9.2067070  86.0271580  41.6766570
   8.9188770  86.4884270  42.4644450  10.0019240  85.5669350  41.9450790
   3.3821300  88.6737250  56.6637390   3.0618170  87.9546490  57.2083080
   2.7079660  89.3492320  56.7373450   6.5974900  78.9063410  52.0274190
   6.9655720  78.0858620  52.3553760   5.7373100  78.9665300  52.4429840
   9.9636930  77.8620350  42.8361750   9.3350090  77.9666020  42.1219980
   9.4688850  78.0817130  43.6255630   4.4095070  89.5825940  40.2695730
   4.5107050  89.3789930  39.3397710   3.5096810  89.3284220  40.4743510
   3.5576890  81.5603000  52.2512160   4.0562140  82.0348820  52.9164010
   3.6999840  80.6366520  52.4582190   5.9636390  76.8656960  45.6915420
   5.8404170  76.8843090  44.7424930   6.9120950  76.9135900  45.8113820
  10.7643750  77.7770960  53.0940550  10.2617350  78.5176360  53.4334360
  11.5800410  78.1654960  52.7777340   9.0565760  83.0204140  46.5401910
   8.1155900  83.0354370  46.7149600   9.3709830  82.2340100  46.9862210
   6.3731780  87.5770140  57.0234290   5.7669940  87.6001740  56.2830040
   6.0685890  86.8453180  57.5601540   2.1588580  86.6777920  39.5741220
   2.0539220  86.0630270  40.3002600   1.9912800  86.1543810  38.7904230
   5.3991310  85.7397950  40.1783210   4.8501410  86.1867250  40.8225950
   6.0210570  85.2347200  40.7020880   9.4526250  87.0940050  56.1105470
  10.1935720  87.4315810  55.6072930   8.6898930  87.2632110  55.5575240
   3.5794070  83.7226480  39.3225610   4.0999730  83.0075500  38.9566760
   4.2262470  84.3612350  39.6226120   8.1271910  85.1454880  54.6460680
   8.5412930  85.2999960  55.4951100   7.1922910  85.2710100  54.8086460
   8.5994080  82.4851040  56.6499830   9.1814850  81.7303360  56.5620310
   8.7755850  83.0158480  55.8731310   2.4827590  76.2021030  51.9944170
   2.0344890  76.2245290  51.1489720   1.8492790  75.8040050  52.5914470
   2.8887140  85.0975360  52.6156610   3.3075250  85.9408090  52.4432850
   1.9695770  85.2347400  52.3863390   5.2251040  82.8291540  53.9994450
   5.3447250  82.2332680  54.7389290   6.0845040  82.8661230  53.5795750
   7.5638940  83.3828730  52.5756960   7.0374160  83.9071350  51.9722100
   7.9070280  84.0156120  53.2066690   6.8113240  78.9878700  55.4903290
   6.1228760  78.3260240  55.4253280   7.5319260  78.5416970  55.9351750
   7.4413640  75.5830330  41.5493550   7.7215930  74.7398230  41.9052970
   6.6679370  75.8153440  42.0632300  11.1236450  90.3341760  54.3193550
  10.5238440  90.3934320  53.5757470  11.2530350  89.3946740  54.4490400
  12.3637900  88.0759580  39.6563260  11.5330860  88.1436230  40.1270490
  12.5409730  88.9663700  39.3530120  11.8194360  84.8207060  42.1597460
  12.5813270  85.3903710  42.2657150  11.8348730  84.2534260  42.9305770
  12.8254330  85.6757160  47.0039390  13.1963160  84.8924480  46.5975360
  13.4656260  86.3646260  46.8256690   9.8088090  87.0593740  52.4169710
   8.9947930  87.4890900  52.6795500  10.2162290  87.6712150  51.8038760
  11.8713530  85.1141430  39.3169980  12.1462370  86.0220310  39.1889200
  11.6824270  85.0503960  40.2531970   8.2689140  78.1386280  40.6123610
   8.6874020  77.9517260  39.7720270   7.9625200  77.2865330  40.9226540
  11.7678870  83.0510420  44.3099410  11.3922470  82.2838350  43.8780700
  11.0381990  83.4333120  44.7974340  11.1578490  82.1981940  53.9438930
  10.9264580  81.9694690  53.0436880  11.4183040  83.1181490  53.8983820
   9.5966560  77.4238370  56.7218630  10.4736740  77.4321770  57.1052630
   9.6087400  76.6869210  56.1110980  11.0429830  81.2767910  47.6106650
  11.5667310  80.7830560  46.9796820  11.6289250  81.4118270  48.3554220
  11.2219550  81.3607780  51.1326200  10.2722260  81.3271320  51.2471190
  11.4032560  82.2707890  50.8975970  10.5329800  80.5341260  43.5499060
  11.0288920  80.3012130  44.3347940  10.3345870  79.6953100  43.1336700
  11.9616960  79.1702210  46.0836740  11.8516240  79.0158250  47.0219010
  12.7224550  78.6423150  45.8412150  10.3082680  75.1096340  52.5419740
  10.9454900  75.7230480  52.9078930  10.4557570  75.1457000  51.5968970
  12.8507230  77.0010130  39.3242880  13.7756540  76.8691310  39.1161170
  12.8283020  77.0802950  40.2779330  12.9245720  77.7720790  41.9499590
  12.1297220  77.7065910  42.4792500  13.1289000  78.7071430  41.9384940
   3.6787160  76.2622530  55.4494840   3.6176050  76.8544360  56.1990250
   4.6187540  76.1548490  55.3045100   6.3161720  75.9192590  55.0887130
   6.9302130  76.2371880  54.4268210   6.8611280  75.4341180  55.7082990
   7.0569760  74.4824730  51.4156420   6.1829600  74.8159840  51.2129350
   6.9480510  74.0097910  52.2408290   7.9641740  76.6895600  52.7998140
   7.6355100  75.8747360  52.4199870   8.9124040  76.6465410  52.6763830
   4.8044580  75.3994570  50.3549330   4.0216370  75.8740070  50.6346090
   4.5107510  74.4949400  50.2462510   9.3565650  76.1017670  48.3998420
   9.7973740  76.0462770  47.5520020   9.0873240  77.0175680  48.4708600
  11.2204220  75.7332910  46.4107240  11.1592620  74.7894130  46.2638260
  11.9996250  75.8413000  46.9560700   2.6898800  77.8181320  45.8665360
   1.8773310  77.4438210  45.5261240   3.1940440  77.0626400  46.1686550
   7.1923780  74.4823770  47.1048430   7.7953150  75.0543980  47.5796950
   6.4516770  75.0463210  46.8822330  10.3358380  74.8845330  42.3788710
  10.5309010  75.7828780  42.6456140   9.5488250  74.6532410  42.8721660
   7.4419000  74.6618800  57.4843370   7.3284450  74.9813410  58.3794890
   8.2588740  75.0631310  57.1880650   6.3477150  82.6811270  27.8478110
   6.2671200  81.7665880  27.5769820   5.9341570  83.1778340  27.1417820
   4.4795190  84.4590290  29.7287380   3.7037290  83.9790730  30.0185950
   5.1308120  83.7795940  29.5543540   8.5002620  88.8650480  28.5086510
   8.0384150  88.0937720  28.8373680   9.3128170  88.8916550  29.0138960
   3.9204180  87.1347480  29.7357540   3.8512460  86.1937420  29.5746670
   4.6824040  87.2248890  30.3080110   4.9509350  79.9417860  29.9626470
   5.3274170  79.0689740  29.8500140   4.8528860  80.2776560  29.0716910
   8.7333470  77.4368300  26.8954810   9.5543090  76.9464870  26.9380290
   8.7667550  78.0265960  27.6486650  13.0233020  79.4535050  33.4598440
  12.3185190  79.8416760  32.9413550  13.2890940  80.1485340  34.0619370
   5.5929280  86.0347730  25.5222410   4.9746550  86.4997180  24.9585130
   6.1052530  86.7275210  25.9391920   8.9694950  79.3768680  29.6682350
   8.2650520  79.6653570  30.2485460   9.3307110  80.1868790  29.3081910
  10.5857730  88.9943810  31.9309830   9.9021250  89.6642920  31.9226500
  11.1252020  89.1924460  31.1654690  12.0381870  78.8223470  30.0591560
  11.0906780  78.8562450  30.1906990  12.3631860  79.6362420  30.4440920
   9.4161890  87.5604160  25.7345180   9.3058220  86.6178490  25.8594600
   9.4130140  87.9219800  26.6207940   7.5201910  85.7417780  31.9737620
   7.9370700  85.5277890  31.1391080   8.2441730  85.9990570  32.5446240
   4.9582170  83.1869480  25.0907670   4.0311450  83.1206860  25.3196140
   5.1106990  84.1249610  24.9762910   4.9451250  79.4586480  22.0874830
   4.0054920  79.6200440  22.1727290   5.2634510  80.1772160  21.5410820
  11.4664010  84.1405000  32.0653860  10.6382640  84.2098090  31.5903990
  12.0614490  84.7259310  31.5969690   8.9879460  84.7489780  25.5942920
   8.3691880  84.4109330  24.9469220   8.9703910  84.1049540  26.3022110
   8.4306020  80.9274320  33.0108730   8.0177200  81.7528030  33.2648720
   7.6981970  80.3419360  32.8185090   7.1644160  83.9876590  22.6015670
   7.6037440  83.1499020  22.4553490   7.8772580  84.6205990  22.6879810
   5.2739540  88.9272660  26.5696910   5.7135450  89.6696990  26.1552300
   5.2126430  89.1699230  27.4935870  10.7461300  75.2419400  20.9156710
  10.4333960  75.3346230  21.8155780  11.5073770  75.8200430  20.8654140
  12.1038580  87.9258440  35.9281110  12.2301640  87.6870320  35.0098290
  12.1459960  87.0942980  36.4003190   7.6435850  89.4229340  22.4857920
   6.9501010  89.4206630  21.8260200   8.3858710  88.9988660  22.0552090
  11.9562590  79.9790900  36.8930850  11.3406860  80.4870570  36.3646310
  11.6359010  79.0789230  36.8356790   4.0176910  78.8182790  34.3593040
   3.5556280  79.0265810  35.1712980   3.6155020  78.0042140  34.0563710
   9.0181420  80.0391740  35.4889700   8.1675010  79.7397490  35.8098770
   8.8583210  80.2833750  34.5773520   6.1131130  81.5393490  37.5888490
   6.4384540  80.7057240  37.2490720   6.9011460  82.0622010  37.7366820
   2.8465920  75.5724970  23.6363550   2.2220100  75.5684840  24.3616860
   2.7596040  74.7055930  23.2399520   1.7683000  76.4961600  30.6147320
   2.0655330  77.4024430  30.5339340   2.3168560  76.0080380  30.0006890
   6.7519080  81.0811210  25.0829620   6.1527970  81.8047010  24.8993240
   7.2998690  81.0187990  24.3006070   1.9620530  81.9733420  37.1499240
   1.8664130  81.0328150  36.9999640   2.8052510  82.1948490  36.7547310
   5.3583950  79.7174750  27.1132900   5.7513520  80.0346950  26.3001590
   5.7200800  78.8386630  27.2277420   3.6676120  78.4682060  38.3729760
   2.9774440  78.2754260  39.0075850   4.4108420  78.7516700  38.9054060
   5.9439090  82.3080500  31.2083680   5.2120210  82.8167310  31.5573780
   5.5463430  81.4910480  30.9072460   2.3816480  78.9834700  29.6136170
   2.3852540  78.5424650  28.7640710   3.2767600  79.3052030  29.7207990
   2.4436630  79.9846780  22.6042930   2.5649450  79.9433260  23.5528750
   2.0585140  80.8470930  22.4489660   6.4065000  77.7614180  30.6206620
   6.4237740  78.2122830  31.4648470   6.1580580  76.8619820  30.8340060
   9.8335750  75.1746360  36.4593000  10.1581520  74.4436020  36.9850980
   9.8692260  74.8560000  35.5573990   2.6824450  83.0436480  31.3601580
   3.0494580  82.5695050  32.1062920   2.4929510  83.9178050  31.7009920
   9.7593590  85.2871470  30.0679030  10.4792710  85.7826760  29.6775140
   9.5575410  84.6089360  29.4232900   5.2203530  76.6809430  24.2108420
   4.4068140  76.1822600  24.1353730   5.0265480  77.5207680  23.7944770
   5.1412390  85.3580530  35.9548030   5.0749700  84.4376200  35.7005620
   4.5117530  85.4555970  36.6692670   7.9351920  81.0529080  22.5070580
   8.8231540  81.3646310  22.3321920   7.9057010  80.1801330  22.1151160
   3.9312510  87.2252770  23.1858750   4.2728210  87.9695000  22.6902070
   3.1025220  87.5383890  23.5483580   5.0729120  88.1801100  35.7051830
   5.0873660  87.2482060  35.4870740   4.3654220  88.2660860  36.3441600
  10.2066190  82.3640920  21.9750440  10.1229910  82.7955140  21.1246880
  10.9260380  82.8239270  22.4077260  11.2840330  84.8208440  35.0520410
  10.5588520  85.4137220  34.8549800  11.8115790  84.8131980  34.2533780
  11.2353440  89.2183180  24.7032570  10.5929600  88.5638800  24.9776290
  10.8484100  89.6238270  23.9273240   6.8139920  86.5468610  28.5504260
   7.1663740  85.9496740  27.8905630   5.9302250  86.2212840  28.7212510
   2.9003200  87.3066300  25.9574670   3.5874330  87.8535510  26.3382260
   2.1135620  87.8507030  25.9924280   2.2030410  84.3112330  25.5700030
   2.6593190  85.1217580  25.7960220   1.8518620  83.9935470  26.4018520
   4.5063020  89.8218670  32.7992330   5.1505240  90.0278050  33.4765750
   4.8692460  89.0607070  32.3463180   5.7795100  87.8251020  31.5169780
   6.4217330  87.1244180  31.6301950   6.3044450  88.6049460  31.3366670
   9.6250820  88.1099640  21.2408920   9.3988400  87.3930080  21.8333560
   9.2347020  87.8612080  20.4030670   7.5532720  88.6245920  34.7205840
   7.8888960  89.2112610  35.3983760   6.6333060  88.4938630  34.9503630
   9.2067070  86.0271580  22.9023080   8.9188770  86.4884270  23.6900960
  10.0019240  85.5669350  23.1707300   3.3821300  88.6737250  37.8893900
   3.0618170  87.9546490  38.4339590   2.7079660  89.3492320  37.9629960
   6.5974900  78.9063410  33.2530700   6.9655720  78.0858620  33.5810270
   5.7373100  78.9665300  33.6686350   9.9636930  77.8620350  24.0618260
   9.3350090  77.9666020  23.3476490   9.4688850  78.0817130  24.8512140
   4.4095070  89.5825940  21.4952240   4.5107050  89.3789930  20.5654220
   3.5096810  89.3284220  21.7000020   3.5576890  81.5603000  33.4768670
   4.0562140  82.0348820  34.1420520   3.6999840  80.6366520  33.6838700
   5.9636390  76.8656960  26.9171930   5.8404170  76.8843090  25.9681440
   6.9120950  76.9135900  27.0370330  10.7643750  77.7770960  34.3197060
  10.2617350  78.5176360  34.6590870  11.5800410  78.1654960  34.0033850
   9.0565760  83.0204140  27.7658420   8.1155900  83.0354370  27.9406110
   9.3709830  82.2340100  28.2118720   6.3731780  87.5770140  38.2490800
   5.7669940  87.6001740  37.5086550   6.0685890  86.8453180  38.7858050
   2.1588580  86.6777920  20.7997730   2.0539220  86.0630270  21.5259110
   1.9912800  86.1543810  20.0160740   5.3991310  85.7397950  21.4039720
   4.8501410  86.1867250  22.0482460   6.0210570  85.2347200  21.9277390
   9.4526250  87.0940050  37.3361980  10.1935720  87.4315810  36.8329440
   8.6898930  87.2632110  36.7831750   3.5794070  83.7226480  20.5482120
   4.0999730  83.0075500  20.1823270   4.2262470  84.3612350  20.8482630
   8.1271910  85.1454880  35.8717190   8.5412930  85.2999960  36.7207610
   7.1922910  85.2710100  36.0342970   8.5994080  82.4851040  37.8756340
   9.1814850  81.7303360  37.7876820   8.7755850  83.0158480  37.0987820
   2.4827590  76.2021030  33.2200680   2.0344890  76.2245290  32.3746230
   1.8492790  75.8040050  33.8170980   2.8887140  85.0975360  33.8413120
   3.3075250  85.9408090  33.6689360   1.9695770  85.2347400  33.6119900
   5.2251040  82.8291540  35.2250960   5.3447250  82.2332680  35.9645800
   6.0845040  82.8661230  34.8052260   7.5638940  83.3828730  33.8013470
   7.0374160  83.9071350  33.1978610   7.9070280  84.0156120  34.4323200
   6.8113240  78.9878700  36.7159800   6.1228760  78.3260240  36.6509790
   7.5319260  78.5416970  37.1608260   7.4413640  75.5830330  22.7750060
   7.7215930  74.7398230  23.1309480   6.6679370  75.8153440  23.2888810
  11.1236450  90.3341760  35.5450060  10.5238440  90.3934320  34.8013980
  11.2530350  89.3946740  35.6746910  12.3637900  88.0759580  20.8819770
  11.5330860  88.1436230  21.3527000  12.5409730  88.9663700  20.5786630
  11.8194360  84.8207060  23.3853970  12.5813270  85.3903710  23.4913660
  11.8348730  84.2534260  24.1562280  12.8254330  85.6757160  28.2295900
  13.1963160  84.8924480  27.8231870  13.4656260  86.3646260  28.0513200
   9.8088090  87.0593740  33.6426220   8.9947930  87.4890900  33.9052010
  10.2162290  87.6712150  33.0295270  11.8713530  85.1141430  20.5426490
  12.1462370  86.0220310  20.4145710  11.6824270  85.0503960  21.4788480
   8.2689140  78.1386280  21.8380120   8.6874020  77.9517260  20.9976780
   7.9625200  77.2865330  22.1483050  11.7678870  83.0510420  25.5355920
  11.3922470  82.2838350  25.1037210  11.0381990  83.4333120  26.0230850
  11.1578490  82.1981940  35.1695440  10.9264580  81.9694690  34.2693390
  11.4183040  83.1181490  35.1240330   9.5966560  77.4238370  37.9475140
  10.4736740  77.4321770  38.3309140   9.6087400  76.6869210  37.3367490
  11.0429830  81.2767910  28.8363160  11.5667310  80.7830560  28.2053330
  11.6289250  81.4118270  29.5810730  11.2219550  81.3607780  32.3582710
  10.2722260  81.3271320  32.4727700  11.4032560  82.2707890  32.1232480
  10.5329800  80.5341260  24.7755570  11.0288920  80.3012130  25.5604450
  10.3345870  79.6953100  24.3593210  11.9616960  79.1702210  27.3093250
  11.8516240  79.0158250  28.2475520  12.7224550  78.6423150  27.0668660
  10.3082680  75.1096340  33.7676250  10.9454900  75.7230480  34.1335440
  10.4557570  75.1457000  32.8225480  12.8507230  77.0010130  20.5499390
  13.7756540  76.8691310  20.3417680  12.8283020  77.0802950  21.5035840
  12.9245720  77.7720790  23.1756100  12.1297220  77.7065910  23.7049010
  13.1289000  78.7071430  23.1641450   3.6787160  76.2622530  36.6751350
   3.6176050  76.8544360  37.4246760   4.6187540  76.1548490  36.5301610
   6.3161720  75.9192590  36.3143640   6.9302130  76.2371880  35.6524720
   6.8611280  75.4341180  36.9339500   7.0569760  74.4824730  32.6412930
   6.1829600  74.8159840  32.4385860   6.9480510  74.0097910  33.4664800
   7.9641740  76.6895600  34.0254650   7.6355100  75.8747360  33.6456380
   8.9124040  76.6465410  33.9020340   4.8044580  75.3994570  31.5805840
   4.0216370  75.8740070  31.8602600   4.5107510  74.4949400  31.4719020
   9.3565650  76.1017670  29.6254930   9.7973740  76.0462770  28.7776530
   9.0873240  77.0175680  29.6965110  11.2204220  75.7332910  27.6363750
  11.1592620  74.7894130  27.4894770  11.9996250  75.8413000  28.1817210
   2.6898800  77.8181320  27.0921870   1.8773310  77.4438210  26.7517750
   3.1940440  77.0626400  27.3943060   7.1923780  74.4823770  28.3304940
   7.7953150  75.0543980  28.8053460   6.4516770  75.0463210  28.1078840
  10.3358380  74.8845330  23.6045220  10.5309010  75.7828780  23.8712650
   9.5488250  74.6532410  24.0978170   7.4419000  74.6618800  38.7099880
   7.3284450  74.9813410  39.6051400   8.2588740  75.0631310  38.4137160
   6.3477150  82.6811270   9.0734620   6.2671200  81.7665880   8.8026330
   5.9341570  83.1778340   8.3674330   4.4795190  84.4590290  10.9543890
   3.7037290  83.9790730  11.2442460   5.1308120  83.7795940  10.7800050
   8.5002620  88.8650480   9.7343020   8.0384150  88.0937720  10.0630190
   9.3128170  88.8916550  10.2395470   3.9204180  87.1347480  10.9614050
   3.8512460  86.1937420  10.8003180   4.6824040  87.2248890  11.5336620
   4.9509350  79.9417860  11.1882980   5.3274170  79.0689740  11.0756650
   4.8528860  80.2776560  10.2973420   8.7333470  77.4368300   8.1211320
   9.5543090  76.9464870   8.1636800   8.7667550  78.0265960   8.8743160
  13.0233020  79.4535050  14.6854950  12.3185190  79.8416760  14.1670060
  13.2890940  80.1485340  15.2875880   5.5929280  86.0347730   6.7478920
   4.9746550  86.4997180   6.1841640   6.1052530  86.7275210   7.1648430
   8.9694950  79.3768680  10.8938860   8.2650520  79.6653570  11.4741970
   9.3307110  80.1868790  10.5338420  10.5857730  88.9943810  13.1566340
   9.9021250  89.6642920  13.1483010  11.1252020  89.1924460  12.3911200
  12.0381870  78.8223470  11.2848070  11.0906780  78.8562450  11.4163500
  12.3631860  79.6362420  11.6697430   9.4161890  87.5604160   6.9601690
   9.3058220  86.6178490   7.0851110   9.4130140  87.9219800   7.8464450
   7.5201910  85.7417780  13.1994130   7.9370700  85.5277890  12.3647590
   8.2441730  85.9990570  13.7702750   4.9582170  83.1869480   6.3164180
   4.0311450  83.1206860   6.5452650   5.1106990  84.1249610   6.2019420
   4.9451250  79.4586480   3.3131340   4.0054920  79.6200440   3.3983800
   5.2634510  80.1772160   2.7667330  11.4664010  84.1405000  13.2910370
  10.6382640  84.2098090  12.8160500  12.0614490  84.7259310  12.8226200
   8.9879460  84.7489780   6.8199430   8.3691880  84.4109330   6.1725730
   8.9703910  84.1049540   7.5278620   8.4306020  80.9274320  14.2365240
   8.0177200  81.7528030  14.4905230   7.6981970  80.3419360  14.0441600
   7.1644160  83.9876590   3.8272180   7.6037440  83.1499020   3.6810000
   7.8772580  84.6205990   3.9136320   5.2739540  88.9272660   7.7953420
   5.7135450  89.6696990   7.3808810   5.2126430  89.1699230   8.7192380
  10.7461300  75.2419400   2.1413220  10.4333960  75.3346230   3.0412290
  11.5073770  75.8200430   2.0910650  12.1038580  87.9258440  17.1537620
  12.2301640  87.6870320  16.2354800  12.1459960  87.0942980  17.6259700
   7.6435850  89.4229340   3.7114430   6.9501010  89.4206630   3.0516710
   8.3858710  88.9988660   3.2808600  11.9562590  79.9790900  18.1187360
  11.3406860  80.4870570  17.5902820  11.6359010  79.0789230  18.0613300
   4.0176910  78.8182790  15.5849550   3.5556280  79.0265810  16.3969490
   3.6155020  78.0042140  15.2820220   9.0181420  80.0391740  16.7146210
   8.1675010  79.7397490  17.0355280   8.8583210  80.2833750  15.8030030
   6.1131130  81.5393490  18.8145000   6.4384540  80.7057240  18.4747230
   6.9011460  82.0622010  18.9623330   2.8465920  75.5724970   4.8620060
   2.2220100  75.5684840   5.5873370   2.7596040  74.7055930   4.4656030
   1.7683000  76.4961600  11.8403830   2.0655330  77.4024430  11.7595850
   2.3168560  76.0080380  11.2263400   6.7519080  81.0811210   6.3086130
   6.1527970  81.8047010   6.1249750   7.2998690  81.0187990   5.5262580
   1.9620530  81.9733420  18.3755750   1.8664130  81.0328150  18.2256150
   2.8052510  82.1948490  17.9803820   5.3583950  79.7174750   8.3389410
   5.7513520  80.0346950   7.5258100   5.7200800  78.8386630   8.4533930
   3.6676120  78.4682060  19.5986270   2.9774440  78.2754260  20.2332360
   4.4108420  78.7516700  20.1310570   5.9439090  82.3080500  12.4340190
   5.2120210  82.8167310  12.7830290   5.5463430  81.4910480  12.1328970
   2.3816480  78.9834700  10.8392680   2.3852540  78.5424650   9.9897220
   3.2767600  79.3052030  10.9464500   2.4436630  79.9846780   3.8299440
   2.5649450  79.9433260   4.7785260   2.0585140  80.8470930   3.6746170
   6.4065000  77.7614180  11.8463130   6.4237740  78.2122830  12.6904980
   6.1580580  76.8619820  12.0596570   9.8335750  75.1746360  17.6849510
  10.1581520  74.4436020  18.2107490   9.8692260  74.8560000  16.7830500
   2.6824450  83.0436480  12.5858090   3.0494580  82.5695050  13.3319430
   2.4929510  83.9178050  12.9266430   9.7593590  85.2871470  11.2935540
  10.4792710  85.7826760  10.9031650   9.5575410  84.6089360  10.6489410
   5.2203530  76.6809430   5.4364930   4.4068140  76.1822600   5.3610240
   5.0265480  77.5207680   5.0201280   5.1412390  85.3580530  17.1804540
   5.0749700  84.4376200  16.9262130   4.5117530  85.4555970  17.8949180
   7.9351920  81.0529080   3.7327090   8.8231540  81.3646310   3.5578430
   7.9057010  80.1801330   3.3407670   3.9312510  87.2252770   4.4115260
   4.2728210  87.9695000   3.9158580   3.1025220  87.5383890   4.7740090
   5.0729120  88.1801100  16.9308340   5.0873660  87.2482060  16.7127250
   4.3654220  88.2660860  17.5698110  10.2066190  82.3640920   3.2006950
  10.1229910  82.7955140   2.3503390  10.9260380  82.8239270   3.6333770
  11.2840330  84.8208440  16.2776920  10.5588520  85.4137220  16.0806310
  11.8115790  84.8131980  15.4790290  11.2353440  89.2183180   5.9289080
  10.5929600  88.5638800   6.2032800  10.8484100  89.6238270   5.1529750
   6.8139920  86.5468610   9.7760770   7.1663740  85.9496740   9.1162140
   5.9302250  86.2212840   9.9469020   2.9003200  87.3066300   7.1831180
   3.5874330  87.8535510   7.5638770   2.1135620  87.8507030   7.2180790
   2.2030410  84.3112330   6.7956540   2.6593190  85.1217580   7.0216730
   1.8518620  83.9935470   7.6275030   4.5063020  89.8218670  14.0248840
   5.1505240  90.0278050  14.7022260   4.8692460  89.0607070  13.5719690
   5.7795100  87.8251020  12.7426290   6.4217330  87.1244180  12.8558460
   6.3044450  88.6049460  12.5623180   9.6250820  88.1099640   2.4665430
   9.3988400  87.3930080   3.0590070   9.2347020  87.8612080   1.6287180
   7.5532720  88.6245920  15.9462350   7.8888960  89.2112610  16.6240270
   6.6333060  88.4938630  16.1760140   9.2067070  86.0271580   4.1279590
   8.9188770  86.4884270   4.9157470  10.0019240  85.5669350   4.3963810
   3.3821300  88.6737250  19.1150410   3.0618170  87.9546490  19.6596100
   2.7079660  89.3492320  19.1886470   6.5974900  78.9063410  14.4787210
   6.9655720  78.0858620  14.8066780   5.7373100  78.9665300  14.8942860
   9.9636930  77.8620350   5.2874770   9.3350090  77.9666020   4.5733000
   9.4688850  78.0817130   6.0768650   4.4095070  89.5825940   2.7208750
   4.5107050  89.3789930   1.7910730   3.5096810  89.3284220   2.9256530
   3.5576890  81.5603000  14.7025180   4.0562140  82.0348820  15.3677030
   3.6999840  80.6366520  14.9095210   5.9636390  76.8656960   8.1428440
   5.8404170  76.8843090   7.1937950   6.9120950  76.9135900   8.2626840
  10.7643750  77.7770960  15.5453570  10.2617350  78.5176360  15.8847380
  11.5800410  78.1654960  15.2290360   9.0565760  83.0204140   8.9914930
   8.1155900  83.0354370   9.1662620   9.3709830  82.2340100   9.4375230
   6.3731780  87.5770140  19.4747310   5.7669940  87.6001740  18.7343060
   6.0685890  86.8453180  20.0114560   5.3991310  85.7397950   2.6296230
   4.8501410  86.1867250   3.2738970   6.0210570  85.2347200   3.1533900
   9.4526250  87.0940050  18.5618490  10.1935720  87.4315810  18.0585950
   8.6898930  87.2632110  18.0088260   8.1271910  85.1454880  17.0973700
   8.5412930  85.2999960  17.9464120   7.1922910  85.2710100  17.2599480
   8.5994080  82.4851040  19.1012850   9.1814850  81.7303360  19.0133330
   8.7755850  83.0158480  18.3244330   2.4827590  76.2021030  14.4457190
   2.0344890  76.2245290  13.6002740   1.8492790  75.8040050  15.0427490
   2.8887140  85.0975360  15.0669630   3.3075250  85.9408090  14.8945870
   1.9695770  85.2347400  14.8376410   5.2251040  82.8291540  16.4507470
   5.3447250  82.2332680  17.1902310   6.0845040  82.8661230  16.0308770
   7.5638940  83.3828730  15.0269980   7.0374160  83.9071350  14.4235120
   7.9070280  84.0156120  15.6579710   6.8113240  78.9878700  17.9416310
   6.1228760  78.3260240  17.8766300   7.5319260  78.5416970  18.3864770
   7.4413640  75.5830330   4.0006570   7.7215930  74.7398230   4.3565990
   6.6679370  75.8153440   4.5145320  11.1236450  90.3341760  16.7706570
  10.5238440  90.3934320  16.0270490  11.2530350  89.3946740  16.9003420
  12.3637900  88.0759580   2.1076280  11.5330860  88.1436230   2.5783510
  12.5409730  88.9663700   1.8043140  11.8194360  84.8207060   4.6110480
  12.5813270  85.3903710   4.7170170  11.8348730  84.2534260   5.3818790
  12.8254330  85.6757160   9.4552410  13.1963160  84.8924480   9.0488380
  13.4656260  86.3646260   9.2769710   9.8088090  87.0593740  14.8682730
   8.9947930  87.4890900  15.1308520  10.2162290  87.6712150  14.2551780
  11.8713530  85.1141430   1.7683000  12.1462370  86.0220310   1.6402220
  11.6824270  85.0503960   2.7044990   8.2689140  78.1386280   3.0636630
   8.6874020  77.9517260   2.2233290   7.9625200  77.2865330   3.3739560
  11.7678870  83.0510420   6.7612430  11.3922470  82.2838350   6.3293720
  11.0381990  83.4333120   7.2487360  11.1578490  82.1981940  16.3951950
  10.9264580  81.9694690  15.4949900  11.4183040  83.1181490  16.3496840
   9.5966560  77.4238370  19.1731650  10.4736740  77.4321770  19.5565650
   9.6087400  76.6869210  18.5624000  11.0429830  81.2767910  10.0619670
  11.5667310  80.7830560   9.4309840  11.6289250  81.4118270  10.8067240
  11.2219550  81.3607780  13.5839220  10.2722260  81.3271320  13.6984210
  11.4032560  82.2707890  13.3488990  10.5329800  80.5341260   6.0012080
  11.0288920  80.3012130   6.7860960  10.3345870  79.6953100   5.5849720
  11.9616960  79.1702210   8.5349760  11.8516240  79.0158250   9.4732030
  12.7224550  78.6423150   8.2925170  10.3082680  75.1096340  14.9932760
  10.9454900  75.7230480  15.3591950  10.4557570  75.1457000  14.0481990
  12.8507230  77.0010130   1.7755900  13.7756540  76.8691310   1.5674190
  12.8283020  77.0802950   2.7292350  12.9245720  77.7720790   4.4012610
  12.1297220  77.7065910   4.9305520  13.1289000  78.7071430   4.3897960
   3.6787160  76.2622530  17.9007860   3.6176050  76.8544360  18.6503270
   4.6187540  76.1548490  17.7558120   6.3161720  75.9192590  17.5400150
   6.9302130  76.2371880  16.8781230   6.8611280  75.4341180  18.1596010
   7.0569760  74.4824730  13.8669440   6.1829600  74.8159840  13.6642370
   6.9480510  74.0097910  14.6921310   7.9641740  76.6895600  15.2511160
   7.6355100  75.8747360  14.8712890   8.9124040  76.6465410  15.1276850
   4.8044580  75.3994570  12.8062350   4.0216370  75.8740070  13.0859110
   4.5107510  74.4949400  12.6975530   9.3565650  76.1017670  10.8511440
   9.7973740  76.0462770  10.0033040   9.0873240  77.0175680  10.9221620
  11.2204220  75.7332910   8.8620260  11.1592620  74.7894130   8.7151280
  11.9996250  75.8413000   9.4073720   2.6898800  77.8181320   8.3178380
   1.8773310  77.4438210   7.9774260   3.1940440  77.0626400   8.6199570
   7.1923780  74.4823770   9.5561450   7.7953150  75.0543980  10.0309970
   6.4516770  75.0463210   9.3335350  10.3358380  74.8845330   4.8301730
  10.5309010  75.7828780   5.0969160   9.5488250  74.6532410   5.3234680
   7.4419000  74.6618800  19.9356390   7.3284450  74.9813410  20.8307910
   8.2588740  75.0631310  19.6393670   6.3477150  63.9067780  65.3965090
   6.2671200  62.9922390  65.1256800   5.9341570  64.4034850  64.6904800
   4.4795190  65.6846800  67.2774360   3.7037290  65.2047240  67.5672930
   5.1308120  65.0052450  67.1030520   8.5002620  70.0906990  66.0573490
   8.0384150  69.3194230  66.3860660   9.3128170  70.1173060  66.5625940
   4.7265930  72.3765000  65.6777480   4.1077370  72.8322500  65.1071920
   5.5817710  72.5316460  65.2767180   3.9204180  68.3603990  67.2844520
   3.8512460  67.4193930  67.1233650   4.6824040  68.4505400  67.8567090
   4.9509350  61.1674370  67.5113450   5.3274170  60.2946250  67.3987120
   4.8528860  61.5033070  66.6203890   8.7333470  58.6624810  64.4441790
   9.5543090  58.1721380  64.4867270   8.7667550  59.2522470  65.1973630
  13.0233020  60.6791560  71.0085420  12.3185190  61.0673270  70.4900530
  13.2890940  61.3741850  71.6106350   5.5929280  67.2604240  63.0709390
   4.9746550  67.7253690  62.5072110   6.1052530  67.9531720  63.4878900
   8.9694950  60.6025190  67.2169330   8.2650520  60.8910080  67.7972440
   9.3307110  61.4125300  66.8568890  10.5857730  70.2200320  69.4796810
   9.9021250  70.8899430  69.4713480  11.1252020  70.4180970  68.7141670
  12.0381870  60.0479980  67.6078540  11.0906780  60.0818960  67.7393970
  12.3631860  60.8618930  67.9927900   8.1216470  72.0644450  68.1941990
   8.1343630  71.6606740  67.3264250   7.5691690  72.8391740  68.0903420
   9.4161890  68.7860670  63.2832160   9.3058220  67.8435000  63.4081580
   9.4130140  69.1476310  64.1694920   7.5201910  66.9674290  69.5224600
   7.9370700  66.7534400  68.6878060   8.2441730  67.2247080  70.0933220
   4.9582170  64.4125990  62.6394650   4.0311450  64.3463370  62.8683120
   5.1106990  65.3506120  62.5249890   4.9451250  60.6842990  59.6361810
   4.0054920  60.8456950  59.7214270   5.2634510  61.4028670  59.0897800
  11.4664010  65.3661510  69.6140840  10.6382640  65.4354600  69.1390970
  12.0614490  65.9515820  69.1456670   8.9879460  65.9746290  63.1429900
   8.3691880  65.6365840  62.4956200   8.9703910  65.3306050  63.8509090
   8.4306020  62.1530830  70.5595710   8.0177200  62.9784540  70.8135700
   7.6981970  61.5675870  70.3672070   9.1206120  72.1990160  71.2476690
   8.6436680  73.0062350  71.0549300   8.4367910  71.5468490  71.4002900
   7.1644160  65.2133100  60.1502650   7.6037440  64.3755530  60.0040470
   7.8772580  65.8462500  60.2366790   5.2739540  70.1529170  64.1183890
   5.7135450  70.8953500  63.7039280   5.2126430  70.3955740  65.0422850
  10.7461300  56.4675910  58.4643690  10.4333960  56.5602740  59.3642760
  11.5073770  57.0456940  58.4141120  12.1038580  69.1514950  73.4768090
  12.2301640  68.9126830  72.5585270  12.1459960  68.3199490  73.9490170
   5.9655320  72.8542950  72.0462900   6.4799990  72.7650960  72.8485330
   5.1224400  73.2002650  72.3390810   7.9409720  73.1398290  61.4746900
   7.7810860  72.8501230  62.3728730   7.7756430  72.3638420  60.9392130
   7.6435850  70.6485850  60.0344900   6.9501010  70.6463140  59.3747180
   8.3858710  70.2245170  59.6039070   7.2085780  72.2748560  64.1093390
   7.6642730  71.4937940  64.4232010   7.5478300  72.9855380  64.6534570
  11.9562590  61.2047410  74.4417830  11.3406860  61.7127080  73.9133290
  11.6359010  60.3045740  74.3843770   4.0176910  60.0439300  71.9080020
   3.5556280  60.2522320  72.7199960   3.6155020  59.2298650  71.6050690
   9.0181420  61.2648250  73.0376680   8.1675010  60.9654000  73.3585750
   8.8583210  61.5090260  72.1260500   6.1131130  62.7650000  75.1375470
   6.4384540  61.9313750  74.7977700   6.9011460  63.2878520  75.2853800
   2.8465920  56.7981480  61.1850530   2.2220100  56.7941350  61.9103840
   2.7596040  55.9312440  60.7886500   1.7683000  57.7218110  68.1634300
   2.0655330  58.6280940  68.0826320   2.3168560  57.2336890  67.5493870
   6.7519080  62.3067720  62.6316600   6.1527970  63.0303520  62.4480220
   7.2998690  62.2444500  61.8493050   1.9620530  63.1989930  74.6986220
   1.8664130  62.2584660  74.5486620   2.8052510  63.4205000  74.3034290
   5.3583950  60.9431260  64.6619880   5.7513520  61.2603460  63.8488570
   5.7200800  60.0643140  64.7764400   5.9439090  63.5337010  68.7570660
   5.2120210  64.0423820  69.1060760   5.5463430  62.7166990  68.4559440
   2.3816480  60.2091210  67.1623150   2.3852540  59.7681160  66.3127690
   3.2767600  60.5308540  67.2694970   2.4436630  61.2103290  60.1529910
   2.5649450  61.1689770  61.1015730   2.0585140  62.0727440  59.9976640
   6.4065000  58.9870690  68.1693600   6.4237740  59.4379340  69.0135450
   6.1580580  58.0876330  68.3827040   9.8335750  56.4002870  74.0079980
  10.1581520  55.6692530  74.5337960   9.8692260  56.0816510  73.1060970
   2.6824450  64.2692990  68.9088560   3.0494580  63.7951560  69.6549900
   2.4929510  65.1434560  69.2496900   9.7593590  66.5127980  67.6166010
  10.4792710  67.0083270  67.2262120   9.5575410  65.8345870  66.9719880
   5.2203530  57.9065940  61.7595400   4.4068140  57.4079110  61.6840710
   5.0265480  58.7464190  61.3431750   5.1412390  66.5837040  73.5035010
   5.0749700  65.6632710  73.2492600   4.5117530  66.6812480  74.2179650
   7.9351920  62.2785590  60.0557560   8.8231540  62.5902820  59.8808900
   7.9057010  61.4057840  59.6638140   3.9312510  68.4509280  60.7345730
   4.2728210  69.1951510  60.2389050   3.1025220  68.7640400  61.0970560
   5.0729120  69.4057610  73.2538810   5.0873660  68.4738570  73.0357720
   4.3654220  69.4917370  73.8928580  10.2066190  63.5897430  59.5237420
  10.1229910  64.0211650  58.6733860  10.9260380  64.0495780  59.9564240
  11.2840330  66.0464950  72.6007390  10.5588520  66.6393730  72.4036780
  11.8115790  66.0388490  71.8020760  11.2353440  70.4439690  62.2519550
  10.5929600  69.7895310  62.5263270  10.8484100  70.8494780  61.4760220
   6.8139920  67.7725120  66.0991240   7.1663740  67.1753250  65.4392610
   5.9302250  67.4469350  66.2699490   2.9003200  68.5322810  63.5061650
   3.5874330  69.0792020  63.8869240   2.1135620  69.0763540  63.5411260
   2.2030410  65.5368840  63.1187010   2.6593190  66.3474090  63.3447200
   1.8518620  65.2191980  63.9505500   4.5063020  71.0475180  70.3479310
   5.1505240  71.2534560  71.0252730   4.8692460  70.2863580  69.8950160
   5.7795100  69.0507530  69.0656760   6.4217330  68.3500690  69.1788930
   6.3044450  69.8305970  68.8853650   9.6250820  69.3356150  58.7895900
   9.3988400  68.6186590  59.3820540   9.2347020  69.0868590  57.9517650
   7.5532720  69.8502430  72.2692820   7.8888960  70.4369120  72.9470740
   6.6333060  69.7195140  72.4990610   9.2067070  67.2528090  60.4510060
   8.9188770  67.7140780  61.2387940  10.0019240  66.7925860  60.7194280
   3.3821300  69.8993760  75.4380880   3.0618170  69.1803000  75.9826570
   2.7079660  70.5748830  75.5116940   6.5974900  60.1319920  70.8017680
   6.9655720  59.3115130  71.1297250   5.7373100  60.1921810  71.2173330
   9.9636930  59.0876860  61.6105240   9.3350090  59.1922530  60.8963470
   9.4688850  59.3073640  62.3999120   4.4095070  70.8082450  59.0439220
   4.5107050  70.6046440  58.1141200   3.5096810  70.5540730  59.2487000
   3.5576890  62.7859510  71.0255650   4.0562140  63.2605330  71.6907500
   3.6999840  61.8623030  71.2325680   5.9636390  58.0913470  64.4658910
   5.8404170  58.1099600  63.5168420   6.9120950  58.1392410  64.5857310
   3.0513180  73.3268770  63.7386890   3.3054680  73.2890160  62.8166260
   2.1025660  73.2002100  63.7315140  10.7643750  59.0027470  71.8684040
  10.2617350  59.7432870  72.2077850  11.5800410  59.3911470  71.5520830
   9.0565760  64.2460650  65.3145400   8.1155900  64.2610880  65.4893090
   9.3709830  63.4596610  65.7605700  11.0591340  71.4169500  66.9899660
  11.1838760  72.2400670  67.4623470  11.9256900  71.2060230  66.6423810
   7.8032150  72.5306940  74.4087190   8.7553900  72.4464960  74.3587430
   7.6560370  73.1948650  75.0820980  10.6941350  71.9101150  59.9079100
  10.4082860  71.4966290  59.0933280  10.4960900  72.8388860  59.7879620
   2.1588580  67.9034430  58.3484710   2.0539220  67.2886780  59.0746090
   1.9912800  67.3800320  57.5647720   5.3991310  66.9654460  58.9526700
   4.8501410  67.4123760  59.5969440   6.0210570  66.4603710  59.4764370
   9.4526250  68.3196560  74.8848960  10.1935720  68.6572320  74.3816420
   8.6898930  68.4888620  74.3318730   3.5794070  64.9482990  58.0969100
   4.0999730  64.2332010  57.7310250   4.2262470  65.5868860  58.3969610
   8.1271910  66.3711390  73.4204170   8.5412930  66.5256470  74.2694590
   7.1922910  66.4966610  73.5829950   8.5994080  63.7107550  75.4243320
   9.1814850  62.9559870  75.3363800   8.7755850  64.2414990  74.6474800
   2.4827590  57.4277540  70.7687660   2.0344890  57.4501800  69.9233210
   1.8492790  57.0296560  71.3657960   2.8887140  66.3231870  71.3900100
   3.3075250  67.1664600  71.2176340   1.9695770  66.4603910  71.1606880
   5.2251040  64.0548050  72.7737940   5.3447250  63.4589190  73.5132780
   6.0845040  64.0917740  72.3539240   7.5638940  64.6085240  71.3500450
   7.0374160  65.1327860  70.7465590   7.9070280  65.2412630  71.9810180
   6.8113240  60.2135210  74.2646780   6.1228760  59.5516750  74.1996770
   7.5319260  59.7673480  74.7095240   7.4413640  56.8086840  60.3237040
   7.7215930  55.9654740  60.6796460   6.6679370  57.0409950  60.8375790
   3.5956770  73.8636090  72.7644480   3.5215470  74.7671230  73.0716850
   2.6935610  73.5447990  72.7366550   4.1442100  73.0294600  60.3870840
   5.0392890  73.3679570  60.4089600   4.1759730  72.3074010  59.7595120
  11.1236450  71.5598270  73.0937040  10.5238440  71.6190830  72.3500960
  11.2530350  70.6203250  73.2233890  12.3637900  69.3016090  58.4306750
  11.5330860  69.3692740  58.9013980  12.5409730  70.1920210  58.1273610
  11.8194360  66.0463570  60.9340950  12.5813270  66.6160220  61.0400640
  11.8348730  65.4790770  61.7049260  12.8254330  66.9013670  65.7782880
  13.1963160  66.1180990  65.3718850  13.4656260  67.5902770  65.6000180
   9.8088090  68.2850250  71.1913200   8.9947930  68.7147410  71.4538990
  10.2162290  68.8968660  70.5782250  11.8713530  66.3397940  58.0913470
  12.1462370  67.2476820  57.9632690  11.6824270  66.2760470  59.0275460
   8.2689140  59.3642790  59.3867100   8.6874020  59.1773770  58.5463760
   7.9625200  58.5121840  59.6970030  11.7678870  64.2766930  63.0842900
  11.3922470  63.5094860  62.6524190  11.0381990  64.6589630  63.5717830
  11.1578490  63.4238450  72.7182420  10.9264580  63.1951200  71.8180370
  11.4183040  64.3438000  72.6727310   9.5966560  58.6494880  75.4962120
  10.4736740  58.6578280  75.8796120   9.6087400  57.9125720  74.8854470
  11.0429830  62.5024420  66.3850140  11.5667310  62.0087070  65.7540310
  11.6289250  62.6374780  67.1297710  11.2219550  62.5864290  69.9069690
  10.2722260  62.5527830  70.0214680  11.4032560  63.4964400  69.6719460
  10.5329800  61.7597770  62.3242550  11.0288920  61.5268640  63.1091430
  10.3345870  60.9209610  61.9080190  11.9616960  60.3958720  64.8580230
  11.8516240  60.2414760  65.7962500  12.7224550  59.8679660  64.6155640
  10.3082680  56.3352850  71.3163230  10.9454900  56.9486990  71.6822420
  10.4557570  56.3713510  70.3712460  12.8507230  58.2266640  58.0986370
  13.7756540  58.0947820  57.8904660  12.8283020  58.3059460  59.0522820
  12.9245720  58.9977300  60.7243080  12.1297220  58.9322420  61.2535990
  13.1289000  59.9327940  60.7128430   9.8664140  73.0368850  64.7181470
  10.4623210  72.7153420  64.0415890  10.1242290  72.5640670  65.5094740
   3.6787160  57.4879040  74.2238330   3.6176050  58.0800870  74.9733740
   4.6187540  57.3805000  74.0788590   6.3161720  57.1449100  73.8630620
   6.9302130  57.4628390  73.2011700   6.8611280  56.6597690  74.4826480
  12.7336900  73.0440730  71.2692460  12.2395180  73.4409600  70.5519590
  12.1250190  72.4189940  71.6629740   7.0569760  55.7081240  70.1899910
   6.1829600  56.0416350  69.9872840   6.9480510  55.2354420  71.0151780
   7.9641740  57.9152110  71.5741630   7.6355100  57.1003870  71.1943360
   8.9124040  57.8721920  71.4507320  10.4176350  73.6864150  68.5479200
   9.9579320  74.4379960  68.1737220   9.7888810  72.9670620  68.4894000
   3.5867570  72.8860880  68.5496310   3.8745380  72.6315180  67.6729320
   4.0990790  72.3338240  69.1401880   4.8044580  56.6251080  69.1292820
   4.0216370  57.0996580  69.4089580   4.5107510  55.7205910  69.0206000
   9.3565650  57.3274180  67.1741910   9.7973740  57.2719280  66.3263510
   9.0873240  58.2432190  67.2452090  11.2204220  56.9589420  65.1850730
  11.1592620  56.0150640  65.0381750  11.9996250  57.0669510  65.7304190
   2.6898800  59.0437830  64.6408850   1.8773310  58.6694720  64.3004730
   3.1940440  58.2882910  64.9430040   7.1923780  55.7080280  65.8791920
   7.7953150  56.2800490  66.3540440   6.4516770  56.2719720  65.6565820
  10.3358380  56.1101840  61.1532200  10.5309010  57.0085290  61.4199630
   9.5488250  55.8788920  61.6465150   3.6539930  73.8076980  75.9164510
   4.5807240  73.5721250  75.9600470   3.6390360  74.6348980  75.4350540
  11.8884990  73.3502550  62.9138760  12.0637180  72.6640290  62.2699680
  11.1906560  73.8749600  62.5215430   6.3477150  63.9067780  46.6221600
   6.2671200  62.9922390  46.3513310   5.9341570  64.4034850  45.9161310
   4.4795190  65.6846800  48.5030870   3.7037290  65.2047240  48.7929440
   5.1308120  65.0052450  48.3287030   8.5002620  70.0906990  47.2830000
   8.0384150  69.3194230  47.6117170   9.3128170  70.1173060  47.7882450
   4.7265930  72.3765000  46.9033990   4.1077370  72.8322500  46.3328430
   5.5817710  72.5316460  46.5023690   3.9204180  68.3603990  48.5101030
   3.8512460  67.4193930  48.3490160   4.6824040  68.4505400  49.0823600
   4.9509350  61.1674370  48.7369960   5.3274170  60.2946250  48.6243630
   4.8528860  61.5033070  47.8460400   8.7333470  58.6624810  45.6698300
   9.5543090  58.1721380  45.7123780   8.7667550  59.2522470  46.4230140
  13.0233020  60.6791560  52.2341930  12.3185190  61.0673270  51.7157040
  13.2890940  61.3741850  52.8362860   5.5929280  67.2604240  44.2965900
   4.9746550  67.7253690  43.7328620   6.1052530  67.9531720  44.7135410
   8.9694950  60.6025190  48.4425840   8.2650520  60.8910080  49.0228950
   9.3307110  61.4125300  48.0825400  10.5857730  70.2200320  50.7053320
   9.9021250  70.8899430  50.6969990  11.1252020  70.4180970  49.9398180
  12.0381870  60.0479980  48.8335050  11.0906780  60.0818960  48.9650480
  12.3631860  60.8618930  49.2184410   8.1216470  72.0644450  49.4198500
   8.1343630  71.6606740  48.5520760   7.5691690  72.8391740  49.3159930
   9.4161890  68.7860670  44.5088670   9.3058220  67.8435000  44.6338090
   9.4130140  69.1476310  45.3951430   7.5201910  66.9674290  50.7481110
   7.9370700  66.7534400  49.9134570   8.2441730  67.2247080  51.3189730
   4.9582170  64.4125990  43.8651160   4.0311450  64.3463370  44.0939630
   5.1106990  65.3506120  43.7506400   4.9451250  60.6842990  40.8618320
   4.0054920  60.8456950  40.9470780   5.2634510  61.4028670  40.3154310
  11.4664010  65.3661510  50.8397350  10.6382640  65.4354600  50.3647480
  12.0614490  65.9515820  50.3713180   8.9879460  65.9746290  44.3686410
   8.3691880  65.6365840  43.7212710   8.9703910  65.3306050  45.0765600
   8.4306020  62.1530830  51.7852220   8.0177200  62.9784540  52.0392210
   7.6981970  61.5675870  51.5928580   9.1206120  72.1990160  52.4733200
   8.6436680  73.0062350  52.2805810   8.4367910  71.5468490  52.6259410
   7.1644160  65.2133100  41.3759160   7.6037440  64.3755530  41.2296980
   7.8772580  65.8462500  41.4623300   5.2739540  70.1529170  45.3440400
   5.7135450  70.8953500  44.9295790   5.2126430  70.3955740  46.2679360
  10.7461300  56.4675910  39.6900200  10.4333960  56.5602740  40.5899270
  11.5073770  57.0456940  39.6397630  12.7005330  71.9602100  57.5424590
  13.1765050  72.4384990  58.2213670  13.3212490  71.8919590  56.8170090
  12.1038580  69.1514950  54.7024600  12.2301640  68.9126830  53.7841780
  12.1459960  68.3199490  55.1746680   5.9655320  72.8542950  53.2719410
   6.4799990  72.7650960  54.0741840   5.1224400  73.2002650  53.5647320
   7.9409720  73.1398290  42.7003410   7.7810860  72.8501230  43.5985240
   7.7756430  72.3638420  42.1648640   7.6435850  70.6485850  41.2601410
   6.9501010  70.6463140  40.6003690   8.3858710  70.2245170  40.8295580
   7.2085780  72.2748560  45.3349900   7.6642730  71.4937940  45.6488520
   7.5478300  72.9855380  45.8791080  11.9562590  61.2047410  55.6674340
  11.3406860  61.7127080  55.1389800  11.6359010  60.3045740  55.6100280
   4.0176910  60.0439300  53.1336530   3.5556280  60.2522320  53.9456470
   3.6155020  59.2298650  52.8307200   9.0181420  61.2648250  54.2633190
   8.1675010  60.9654000  54.5842260   8.8583210  61.5090260  53.3517010
   6.1131130  62.7650000  56.3631980   6.4384540  61.9313750  56.0234210
   6.9011460  63.2878520  56.5110310   2.8465920  56.7981480  42.4107040
   2.2220100  56.7941350  43.1360350   2.7596040  55.9312440  42.0143010
   1.7683000  57.7218110  49.3890810   2.0655330  58.6280940  49.3082830
   2.3168560  57.2336890  48.7750380   6.7519080  62.3067720  43.8573110
   6.1527970  63.0303520  43.6736730   7.2998690  62.2444500  43.0749560
   1.9620530  63.1989930  55.9242730   1.8664130  62.2584660  55.7743130
   2.8052510  63.4205000  55.5290800   5.3583950  60.9431260  45.8876390
   5.7513520  61.2603460  45.0745080   5.7200800  60.0643140  46.0020910
   3.6676120  59.6938570  57.1473250   2.9774440  59.5010770  57.7819340
   4.4108420  59.9773210  57.6797550   5.9439090  63.5337010  49.9827170
   5.2120210  64.0423820  50.3317270   5.5463430  62.7166990  49.6815950
   2.3816480  60.2091210  48.3879660   2.3852540  59.7681160  47.5384200
   3.2767600  60.5308540  48.4951480   2.4436630  61.2103290  41.3786420
   2.5649450  61.1689770  42.3272240   2.0585140  62.0727440  41.2233150
   6.4065000  58.9870690  49.3950110   6.4237740  59.4379340  50.2391960
   6.1580580  58.0876330  49.6083550   9.8335750  56.4002870  55.2336490
  10.1581520  55.6692530  55.7594470   9.8692260  56.0816510  54.3317480
   2.6824450  64.2692990  50.1345070   3.0494580  63.7951560  50.8806410
   2.4929510  65.1434560  50.4753410   9.7593590  66.5127980  48.8422520
  10.4792710  67.0083270  48.4518630   9.5575410  65.8345870  48.1976390
   5.2203530  57.9065940  42.9851910   4.4068140  57.4079110  42.9097220
   5.0265480  58.7464190  42.5688260   5.1412390  66.5837040  54.7291520
   5.0749700  65.6632710  54.4749110   4.5117530  66.6812480  55.4436160
   7.9351920  62.2785590  41.2814070   8.8231540  62.5902820  41.1065410
   7.9057010  61.4057840  40.8894650   3.9312510  68.4509280  41.9602240
   4.2728210  69.1951510  41.4645560   3.1025220  68.7640400  42.3227070
   5.0729120  69.4057610  54.4795320   5.0873660  68.4738570  54.2614230
   4.3654220  69.4917370  55.1185090  10.2066190  63.5897430  40.7493930
  10.1229910  64.0211650  39.8990370  10.9260380  64.0495780  41.1820750
  11.2840330  66.0464950  53.8263900  10.5588520  66.6393730  53.6293290
  11.8115790  66.0388490  53.0277270  11.2353440  70.4439690  43.4776060
  10.5929600  69.7895310  43.7519780  10.8484100  70.8494780  42.7016730
   6.8139920  67.7725120  47.3247750   7.1663740  67.1753250  46.6649120
   5.9302250  67.4469350  47.4956000   2.9003200  68.5322810  44.7318160
   3.5874330  69.0792020  45.1125750   2.1135620  69.0763540  44.7667770
   2.2030410  65.5368840  44.3443520   2.6593190  66.3474090  44.5703710
   1.8518620  65.2191980  45.1762010   4.5063020  71.0475180  51.5735820
   5.1505240  71.2534560  52.2509240   4.8692460  70.2863580  51.1206670
   5.7795100  69.0507530  50.2913270   6.4217330  68.3500690  50.4045440
   6.3044450  69.8305970  50.1110160   9.6250820  69.3356150  40.0152410
   9.3988400  68.6186590  40.6077050   9.2347020  69.0868590  39.1774160
   7.5532720  69.8502430  53.4949330   7.8888960  70.4369120  54.1727250
   6.6333060  69.7195140  53.7247120   9.2067070  67.2528090  41.6766570
   8.9188770  67.7140780  42.4644450  10.0019240  66.7925860  41.9450790
   3.3821300  69.8993760  56.6637390   3.0618170  69.1803000  57.2083080
   2.7079660  70.5748830  56.7373450   6.5974900  60.1319920  52.0274190
   6.9655720  59.3115130  52.3553760   5.7373100  60.1921810  52.4429840
   9.9636930  59.0876860  42.8361750   9.3350090  59.1922530  42.1219980
   9.4688850  59.3073640  43.6255630   4.4095070  70.8082450  40.2695730
   4.5107050  70.6046440  39.3397710   3.5096810  70.5540730  40.4743510
   3.5576890  62.7859510  52.2512160   4.0562140  63.2605330  52.9164010
   3.6999840  61.8623030  52.4582190   5.9636390  58.0913470  45.6915420
   5.8404170  58.1099600  44.7424930   6.9120950  58.1392410  45.8113820
   3.0513180  73.3268770  44.9643400   3.3054680  73.2890160  44.0422770
   2.1025660  73.2002100  44.9571650  10.7643750  59.0027470  53.0940550
  10.2617350  59.7432870  53.4334360  11.5800410  59.3911470  52.7777340
   9.0565760  64.2460650  46.5401910   8.1155900  64.2610880  46.7149600
   9.3709830  63.4596610  46.9862210  11.0591340  71.4169500  48.2156170
  11.1838760  72.2400670  48.6879980  11.9256900  71.2060230  47.8680320
   6.3731780  68.8026650  57.0234290   5.7669940  68.8258250  56.2830040
   6.0685890  68.0709690  57.5601540   7.8032150  72.5306940  55.6343700
   8.7553900  72.4464960  55.5843940   7.6560370  73.1948650  56.3077490
  10.6941350  71.9101150  41.1335610  10.4082860  71.4966290  40.3189790
  10.4960900  72.8388860  41.0136130   2.1588580  67.9034430  39.5741220
   2.0539220  67.2886780  40.3002600   1.9912800  67.3800320  38.7904230
   5.3991310  66.9654460  40.1783210   4.8501410  67.4123760  40.8225950
   6.0210570  66.4603710  40.7020880   9.4526250  68.3196560  56.1105470
  10.1935720  68.6572320  55.6072930   8.6898930  68.4888620  55.5575240
   3.5794070  64.9482990  39.3225610   4.0999730  64.2332010  38.9566760
   4.2262470  65.5868860  39.6226120   8.1271910  66.3711390  54.6460680
   8.5412930  66.5256470  55.4951100   7.1922910  66.4966610  54.8086460
   8.5994080  63.7107550  56.6499830   9.1814850  62.9559870  56.5620310
   8.7755850  64.2414990  55.8731310   2.4827590  57.4277540  51.9944170
   2.0344890  57.4501800  51.1489720   1.8492790  57.0296560  52.5914470
   2.8887140  66.3231870  52.6156610   3.3075250  67.1664600  52.4432850
   1.9695770  66.4603910  52.3863390   5.2251040  64.0548050  53.9994450
   5.3447250  63.4589190  54.7389290   6.0845040  64.0917740  53.5795750
   7.5638940  64.6085240  52.5756960   7.0374160  65.1327860  51.9722100
   7.9070280  65.2412630  53.2066690   6.8113240  60.2135210  55.4903290
   6.1228760  59.5516750  55.4253280   7.5319260  59.7673480  55.9351750
   7.4413640  56.8086840  41.5493550   7.7215930  55.9654740  41.9052970
   6.6679370  57.0409950  42.0632300   3.5956770  73.8636090  53.9900990
   3.5215470  74.7671230  54.2973360   2.6935610  73.5447990  53.9623060
   4.1442100  73.0294600  41.6127350   5.0392890  73.3679570  41.6346110
   4.1759730  72.3074010  40.9851630  11.1236450  71.5598270  54.3193550
  10.5238440  71.6190830  53.5757470  11.2530350  70.6203250  54.4490400
  12.3637900  69.3016090  39.6563260  11.5330860  69.3692740  40.1270490
  12.5409730  70.1920210  39.3530120  11.8194360  66.0463570  42.1597460
  12.5813270  66.6160220  42.2657150  11.8348730  65.4790770  42.9305770
  12.8254330  66.9013670  47.0039390  13.1963160  66.1180990  46.5975360
  13.4656260  67.5902770  46.8256690   9.8088090  68.2850250  52.4169710
   8.9947930  68.7147410  52.6795500  10.2162290  68.8968660  51.8038760
  11.8713530  66.3397940  39.3169980  12.1462370  67.2476820  39.1889200
  11.6824270  66.2760470  40.2531970   8.2689140  59.3642790  40.6123610
   8.6874020  59.1773770  39.7720270   7.9625200  58.5121840  40.9226540
  11.7678870  64.2766930  44.3099410  11.3922470  63.5094860  43.8780700
  11.0381990  64.6589630  44.7974340  11.1578490  63.4238450  53.9438930
  10.9264580  63.1951200  53.0436880  11.4183040  64.3438000  53.8983820
   9.5966560  58.6494880  56.7218630  10.4736740  58.6578280  57.1052630
   9.6087400  57.9125720  56.1110980  11.0429830  62.5024420  47.6106650
  11.5667310  62.0087070  46.9796820  11.6289250  62.6374780  48.3554220
  11.2219550  62.5864290  51.1326200  10.2722260  62.5527830  51.2471190
  11.4032560  63.4964400  50.8975970  10.5329800  61.7597770  43.5499060
  11.0288920  61.5268640  44.3347940  10.3345870  60.9209610  43.1336700
  11.9616960  60.3958720  46.0836740  11.8516240  60.2414760  47.0219010
  12.7224550  59.8679660  45.8412150  10.3082680  56.3352850  52.5419740
  10.9454900  56.9486990  52.9078930  10.4557570  56.3713510  51.5968970
  12.8507230  58.2266640  39.3242880  13.7756540  58.0947820  39.1161170
  12.8283020  58.3059460  40.2779330  12.9245720  58.9977300  41.9499590
  12.1297220  58.9322420  42.4792500  13.1289000  59.9327940  41.9384940
   9.8664140  73.0368850  45.9437980  10.4623210  72.7153420  45.2672400
  10.1242290  72.5640670  46.7351250   3.6787160  57.4879040  55.4494840
   3.6176050  58.0800870  56.1990250   4.6187540  57.3805000  55.3045100
   6.3161720  57.1449100  55.0887130   6.9302130  57.4628390  54.4268210
   6.8611280  56.6597690  55.7082990  12.7336900  73.0440730  52.4948970
  12.2395180  73.4409600  51.7776100  12.1250190  72.4189940  52.8886250
   7.0569760  55.7081240  51.4156420   6.1829600  56.0416350  51.2129350
   6.9480510  55.2354420  52.2408290   7.9641740  57.9152110  52.7998140
   7.6355100  57.1003870  52.4199870   8.9124040  57.8721920  52.6763830
  10.4176350  73.6864150  49.7735710   9.9579320  74.4379960  49.3993730
   9.7888810  72.9670620  49.7150510   3.5867570  72.8860880  49.7752820
   3.8745380  72.6315180  48.8985830   4.0990790  72.3338240  50.3658390
   4.8044580  56.6251080  50.3549330   4.0216370  57.0996580  50.6346090
   4.5107510  55.7205910  50.2462510   9.3565650  57.3274180  48.3998420
   9.7973740  57.2719280  47.5520020   9.0873240  58.2432190  48.4708600
  11.2204220  56.9589420  46.4107240  11.1592620  56.0150640  46.2638260
  11.9996250  57.0669510  46.9560700   2.6898800  59.0437830  45.8665360
   1.8773310  58.6694720  45.5261240   3.1940440  58.2882910  46.1686550
   7.1923780  55.7080280  47.1048430   7.7953150  56.2800490  47.5796950
   6.4516770  56.2719720  46.8822330  10.3358380  56.1101840  42.3788710
  10.5309010  57.0085290  42.6456140   9.5488250  55.8788920  42.8721660
   3.6539930  73.8076980  57.1421020   4.5807240  73.5721250  57.1856980
   3.6390360  74.6348980  56.6607050  11.8884990  73.3502550  44.1395270
  12.0637180  72.6640290  43.4956190  11.1906560  73.8749600  43.7471940
   7.4419000  55.8875310  57.4843370   7.3284450  56.2069920  58.3794890
   8.2588740  56.2887820  57.1880650  10.2217490  73.0346840  56.9662060
  11.0142810  72.5396070  56.7588020  10.5150640  73.7136980  57.5737670
   6.3477150  63.9067780  27.8478110   6.2671200  62.9922390  27.5769820
   5.9341570  64.4034850  27.1417820   4.4795190  65.6846800  29.7287380
   3.7037290  65.2047240  30.0185950   5.1308120  65.0052450  29.5543540
   8.5002620  70.0906990  28.5086510   8.0384150  69.3194230  28.8373680
   9.3128170  70.1173060  29.0138960   4.7265930  72.3765000  28.1290500
   4.1077370  72.8322500  27.5584940   5.5817710  72.5316460  27.7280200
   3.9204180  68.3603990  29.7357540   3.8512460  67.4193930  29.5746670
   4.6824040  68.4505400  30.3080110   4.9509350  61.1674370  29.9626470
   5.3274170  60.2946250  29.8500140   4.8528860  61.5033070  29.0716910
   8.7333470  58.6624810  26.8954810   9.5543090  58.1721380  26.9380290
   8.7667550  59.2522470  27.6486650  13.0233020  60.6791560  33.4598440
  12.3185190  61.0673270  32.9413550  13.2890940  61.3741850  34.0619370
   5.5929280  67.2604240  25.5222410   4.9746550  67.7253690  24.9585130
   6.1052530  67.9531720  25.9391920   8.9694950  60.6025190  29.6682350
   8.2650520  60.8910080  30.2485460   9.3307110  61.4125300  29.3081910
  10.5857730  70.2200320  31.9309830   9.9021250  70.8899430  31.9226500
  11.1252020  70.4180970  31.1654690  12.0381870  60.0479980  30.0591560
  11.0906780  60.0818960  30.1906990  12.3631860  60.8618930  30.4440920
   8.1216470  72.0644450  30.6455010   8.1343630  71.6606740  29.7777270
   7.5691690  72.8391740  30.5416440   9.4161890  68.7860670  25.7345180
   9.3058220  67.8435000  25.8594600   9.4130140  69.1476310  26.6207940
   7.5201910  66.9674290  31.9737620   7.9370700  66.7534400  31.1391080
   8.2441730  67.2247080  32.5446240   4.9582170  64.4125990  25.0907670
   4.0311450  64.3463370  25.3196140   5.1106990  65.3506120  24.9762910
   4.9451250  60.6842990  22.0874830   4.0054920  60.8456950  22.1727290
   5.2634510  61.4028670  21.5410820  11.4664010  65.3661510  32.0653860
  10.6382640  65.4354600  31.5903990  12.0614490  65.9515820  31.5969690
   8.9879460  65.9746290  25.5942920   8.3691880  65.6365840  24.9469220
   8.9703910  65.3306050  26.3022110   8.4306020  62.1530830  33.0108730
   8.0177200  62.9784540  33.2648720   7.6981970  61.5675870  32.8185090
   9.1206120  72.1990160  33.6989710   8.6436680  73.0062350  33.5062320
   8.4367910  71.5468490  33.8515920   7.1644160  65.2133100  22.6015670
   7.6037440  64.3755530  22.4553490   7.8772580  65.8462500  22.6879810
   5.2739540  70.1529170  26.5696910   5.7135450  70.8953500  26.1552300
   5.2126430  70.3955740  27.4935870  10.7461300  56.4675910  20.9156710
  10.4333960  56.5602740  21.8155780  11.5073770  57.0456940  20.8654140
  12.7005330  71.9602100  38.7681100  13.1765050  72.4384990  39.4470180
  13.3212490  71.8919590  38.0426600  12.1038580  69.1514950  35.9281110
  12.2301640  68.9126830  35.0098290  12.1459960  68.3199490  36.4003190
   5.9655320  72.8542950  34.4975920   6.4799990  72.7650960  35.2998350
   5.1224400  73.2002650  34.7903830   7.9409720  73.1398290  23.9259920
   7.7810860  72.8501230  24.8241750   7.7756430  72.3638420  23.3905150
   7.6435850  70.6485850  22.4857920   6.9501010  70.6463140  21.8260200
   8.3858710  70.2245170  22.0552090   7.2085780  72.2748560  26.5606410
   7.6642730  71.4937940  26.8745030   7.5478300  72.9855380  27.1047590
  11.9562590  61.2047410  36.8930850  11.3406860  61.7127080  36.3646310
  11.6359010  60.3045740  36.8356790   4.0176910  60.0439300  34.3593040
   3.5556280  60.2522320  35.1712980   3.6155020  59.2298650  34.0563710
   9.0181420  61.2648250  35.4889700   8.1675010  60.9654000  35.8098770
   8.8583210  61.5090260  34.5773520   6.1131130  62.7650000  37.5888490
   6.4384540  61.9313750  37.2490720   6.9011460  63.2878520  37.7366820
   2.8465920  56.7981480  23.6363550   2.2220100  56.7941350  24.3616860
   2.7596040  55.9312440  23.2399520   1.7683000  57.7218110  30.6147320
   2.0655330  58.6280940  30.5339340   2.3168560  57.2336890  30.0006890
   6.7519080  62.3067720  25.0829620   6.1527970  63.0303520  24.8993240
   7.2998690  62.2444500  24.3006070   1.9620530  63.1989930  37.1499240
   1.8664130  62.2584660  36.9999640   2.8052510  63.4205000  36.7547310
   5.3583950  60.9431260  27.1132900   5.7513520  61.2603460  26.3001590
   5.7200800  60.0643140  27.2277420   3.6676120  59.6938570  38.3729760
   2.9774440  59.5010770  39.0075850   4.4108420  59.9773210  38.9054060
   5.9439090  63.5337010  31.2083680   5.2120210  64.0423820  31.5573780
   5.5463430  62.7166990  30.9072460   2.3816480  60.2091210  29.6136170
   2.3852540  59.7681160  28.7640710   3.2767600  60.5308540  29.7207990
   2.4436630  61.2103290  22.6042930   2.5649450  61.1689770  23.5528750
   2.0585140  62.0727440  22.4489660   6.4065000  58.9870690  30.6206620
   6.4237740  59.4379340  31.4648470   6.1580580  58.0876330  30.8340060
   9.8335750  56.4002870  36.4593000  10.1581520  55.6692530  36.9850980
   9.8692260  56.0816510  35.5573990   2.6824450  64.2692990  31.3601580
   3.0494580  63.7951560  32.1062920   2.4929510  65.1434560  31.7009920
   9.7593590  66.5127980  30.0679030  10.4792710  67.0083270  29.6775140
   9.5575410  65.8345870  29.4232900   5.2203530  57.9065940  24.2108420
   4.4068140  57.4079110  24.1353730   5.0265480  58.7464190  23.7944770
   5.1412390  66.5837040  35.9548030   5.0749700  65.6632710  35.7005620
   4.5117530  66.6812480  36.6692670   7.9351920  62.2785590  22.5070580
   8.8231540  62.5902820  22.3321920   7.9057010  61.4057840  22.1151160
   3.9312510  68.4509280  23.1858750   4.2728210  69.1951510  22.6902070
   3.1025220  68.7640400  23.5483580   5.0729120  69.4057610  35.7051830
   5.0873660  68.4738570  35.4870740   4.3654220  69.4917370  36.3441600
  10.2066190  63.5897430  21.9750440  10.1229910  64.0211650  21.1246880
  10.9260380  64.0495780  22.4077260  11.2840330  66.0464950  35.0520410
  10.5588520  66.6393730  34.8549800  11.8115790  66.0388490  34.2533780
  11.2353440  70.4439690  24.7032570  10.5929600  69.7895310  24.9776290
  10.8484100  70.8494780  23.9273240   6.8139920  67.7725120  28.5504260
   7.1663740  67.1753250  27.8905630   5.9302250  67.4469350  28.7212510
   2.9003200  68.5322810  25.9574670   3.5874330  69.0792020  26.3382260
   2.1135620  69.0763540  25.9924280   2.2030410  65.5368840  25.5700030
   2.6593190  66.3474090  25.7960220   1.8518620  65.2191980  26.4018520
   4.5063020  71.0475180  32.7992330   5.1505240  71.2534560  33.4765750
   4.8692460  70.2863580  32.3463180   5.7795100  69.0507530  31.5169780
   6.4217330  68.3500690  31.6301950   6.3044450  69.8305970  31.3366670
   9.6250820  69.3356150  21.2408920   9.3988400  68.6186590  21.8333560
   9.2347020  69.0868590  20.4030670   7.5532720  69.8502430  34.7205840
   7.8888960  70.4369120  35.3983760   6.6333060  69.7195140  34.9503630
   9.2067070  67.2528090  22.9023080   8.9188770  67.7140780  23.6900960
  10.0019240  66.7925860  23.1707300   3.3821300  69.8993760  37.8893900
   3.0618170  69.1803000  38.4339590   2.7079660  70.5748830  37.9629960
   6.5974900  60.1319920  33.2530700   6.9655720  59.3115130  33.5810270
   5.7373100  60.1921810  33.6686350   9.9636930  59.0876860  24.0618260
   9.3350090  59.1922530  23.3476490   9.4688850  59.3073640  24.8512140
   4.4095070  70.8082450  21.4952240   4.5107050  70.6046440  20.5654220
   3.5096810  70.5540730  21.7000020   3.5576890  62.7859510  33.4768670
   4.0562140  63.2605330  34.1420520   3.6999840  61.8623030  33.6838700
   5.9636390  58.0913470  26.9171930   5.8404170  58.1099600  25.9681440
   6.9120950  58.1392410  27.0370330   3.0513180  73.3268770  26.1899910
   3.3054680  73.2890160  25.2679280   2.1025660  73.2002100  26.1828160
  10.7643750  59.0027470  34.3197060  10.2617350  59.7432870  34.6590870
  11.5800410  59.3911470  34.0033850   9.0565760  64.2460650  27.7658420
   8.1155900  64.2610880  27.9406110   9.3709830  63.4596610  28.2118720
  11.0591340  71.4169500  29.4412680  11.1838760  72.2400670  29.9136490
  11.9256900  71.2060230  29.0936830   6.3731780  68.8026650  38.2490800
   5.7669940  68.8258250  37.5086550   6.0685890  68.0709690  38.7858050
   7.8032150  72.5306940  36.8600210   8.7553900  72.4464960  36.8100450
   7.6560370  73.1948650  37.5334000  10.6941350  71.9101150  22.3592120
  10.4082860  71.4966290  21.5446300  10.4960900  72.8388860  22.2392640
   2.1588580  67.9034430  20.7997730   2.0539220  67.2886780  21.5259110
   1.9912800  67.3800320  20.0160740   5.3991310  66.9654460  21.4039720
   4.8501410  67.4123760  22.0482460   6.0210570  66.4603710  21.9277390
   9.4526250  68.3196560  37.3361980  10.1935720  68.6572320  36.8329440
   8.6898930  68.4888620  36.7831750   3.5794070  64.9482990  20.5482120
   4.0999730  64.2332010  20.1823270   4.2262470  65.5868860  20.8482630
   8.1271910  66.3711390  35.8717190   8.5412930  66.5256470  36.7207610
   7.1922910  66.4966610  36.0342970   8.5994080  63.7107550  37.8756340
   9.1814850  62.9559870  37.7876820   8.7755850  64.2414990  37.0987820
   2.4827590  57.4277540  33.2200680   2.0344890  57.4501800  32.3746230
   1.8492790  57.0296560  33.8170980   2.8887140  66.3231870  33.8413120
   3.3075250  67.1664600  33.6689360   1.9695770  66.4603910  33.6119900
   5.2251040  64.0548050  35.2250960   5.3447250  63.4589190  35.9645800
   6.0845040  64.0917740  34.8052260   7.5638940  64.6085240  33.8013470
   7.0374160  65.1327860  33.1978610   7.9070280  65.2412630  34.4323200
   6.8113240  60.2135210  36.7159800   6.1228760  59.5516750  36.6509790
   7.5319260  59.7673480  37.1608260   7.4413640  56.8086840  22.7750060
   7.7215930  55.9654740  23.1309480   6.6679370  57.0409950  23.2888810
   3.5956770  73.8636090  35.2157500   3.5215470  74.7671230  35.5229870
   2.6935610  73.5447990  35.1879570   4.1442100  73.0294600  22.8383860
   5.0392890  73.3679570  22.8602620   4.1759730  72.3074010  22.2108140
  11.1236450  71.5598270  35.5450060  10.5238440  71.6190830  34.8013980
  11.2530350  70.6203250  35.6746910  12.3637900  69.3016090  20.8819770
  11.5330860  69.3692740  21.3527000  12.5409730  70.1920210  20.5786630
  11.8194360  66.0463570  23.3853970  12.5813270  66.6160220  23.4913660
  11.8348730  65.4790770  24.1562280  12.8254330  66.9013670  28.2295900
  13.1963160  66.1180990  27.8231870  13.4656260  67.5902770  28.0513200
   9.8088090  68.2850250  33.6426220   8.9947930  68.7147410  33.9052010
  10.2162290  68.8968660  33.0295270  11.8713530  66.3397940  20.5426490
  12.1462370  67.2476820  20.4145710  11.6824270  66.2760470  21.4788480
   8.2689140  59.3642790  21.8380120   8.6874020  59.1773770  20.9976780
   7.9625200  58.5121840  22.1483050  11.7678870  64.2766930  25.5355920
  11.3922470  63.5094860  25.1037210  11.0381990  64.6589630  26.0230850
  11.1578490  63.4238450  35.1695440  10.9264580  63.1951200  34.2693390
  11.4183040  64.3438000  35.1240330   9.5966560  58.6494880  37.9475140
  10.4736740  58.6578280  38.3309140   9.6087400  57.9125720  37.3367490
  11.0429830  62.5024420  28.8363160  11.5667310  62.0087070  28.2053330
  11.6289250  62.6374780  29.5810730  11.2219550  62.5864290  32.3582710
  10.2722260  62.5527830  32.4727700  11.4032560  63.4964400  32.1232480
  10.5329800  61.7597770  24.7755570  11.0288920  61.5268640  25.5604450
  10.3345870  60.9209610  24.3593210  11.9616960  60.3958720  27.3093250
  11.8516240  60.2414760  28.2475520  12.7224550  59.8679660  27.0668660
  10.3082680  56.3352850  33.7676250  10.9454900  56.9486990  34.1335440
  10.4557570  56.3713510  32.8225480  12.8507230  58.2266640  20.5499390
  13.7756540  58.0947820  20.3417680  12.8283020  58.3059460  21.5035840
  12.9245720  58.9977300  23.1756100  12.1297220  58.9322420  23.7049010
  13.1289000  59.9327940  23.1641450   9.8664140  73.0368850  27.1694490
  10.4623210  72.7153420  26.4928910  10.1242290  72.5640670  27.9607760
   3.6787160  57.4879040  36.6751350   3.6176050  58.0800870  37.4246760
   4.6187540  57.3805000  36.5301610   6.3161720  57.1449100  36.3143640
   6.9302130  57.4628390  35.6524720   6.8611280  56.6597690  36.9339500
  12.7336900  73.0440730  33.7205480  12.2395180  73.4409600  33.0032610
  12.1250190  72.4189940  34.1142760   7.0569760  55.7081240  32.6412930
   6.1829600  56.0416350  32.4385860   6.9480510  55.2354420  33.4664800
   7.9641740  57.9152110  34.0254650   7.6355100  57.1003870  33.6456380
   8.9124040  57.8721920  33.9020340  10.4176350  73.6864150  30.9992220
   9.9579320  74.4379960  30.6250240   9.7888810  72.9670620  30.9407020
   3.5867570  72.8860880  31.0009330   3.8745380  72.6315180  30.1242340
   4.0990790  72.3338240  31.5914900   4.8044580  56.6251080  31.5805840
   4.0216370  57.0996580  31.8602600   4.5107510  55.7205910  31.4719020
   9.3565650  57.3274180  29.6254930   9.7973740  57.2719280  28.7776530
   9.0873240  58.2432190  29.6965110  11.2204220  56.9589420  27.6363750
  11.1592620  56.0150640  27.4894770  11.9996250  57.0669510  28.1817210
   2.6898800  59.0437830  27.0921870   1.8773310  58.6694720  26.7517750
   3.1940440  58.2882910  27.3943060   7.1923780  55.7080280  28.3304940
   7.7953150  56.2800490  28.8053460   6.4516770  56.2719720  28.1078840
  10.3358380  56.1101840  23.6045220  10.5309010  57.0085290  23.8712650
   9.5488250  55.8788920  24.0978170   3.6539930  73.8076980  38.3677530
   4.5807240  73.5721250  38.4113490   3.6390360  74.6348980  37.8863560
  11.8884990  73.3502550  25.3651780  12.0637180  72.6640290  24.7212700
  11.1906560  73.8749600  24.9728450   7.4419000  55.8875310  38.7099880
   7.3284450  56.2069920  39.6051400   8.2588740  56.2887820  38.4137160
  10.2217490  73.0346840  38.1918570  11.0142810  72.5396070  37.9844530
  10.5150640  73.7136980  38.7994180   6.3477150  63.9067780   9.0734620
   6.2671200  62.9922390   8.8026330   5.9341570  64.4034850   8.3674330
   4.4795190  65.6846800  10.9543890   3.7037290  65.2047240  11.2442460
   5.1308120  65.0052450  10.7800050   8.5002620  70.0906990   9.7343020
   8.0384150  69.3194230  10.0630190   9.3128170  70.1173060  10.2395470
   4.7265930  72.3765000   9.3547010   4.1077370  72.8322500   8.7841450
   5.5817710  72.5316460   8.9536710   3.9204180  68.3603990  10.9614050
   3.8512460  67.4193930  10.8003180   4.6824040  68.4505400  11.5336620
   4.9509350  61.1674370  11.1882980   5.3274170  60.2946250  11.0756650
   4.8528860  61.5033070  10.2973420   8.7333470  58.6624810   8.1211320
   9.5543090  58.1721380   8.1636800   8.7667550  59.2522470   8.8743160
  13.0233020  60.6791560  14.6854950  12.3185190  61.0673270  14.1670060
  13.2890940  61.3741850  15.2875880   5.5929280  67.2604240   6.7478920
   4.9746550  67.7253690   6.1841640   6.1052530  67.9531720   7.1648430
   8.9694950  60.6025190  10.8938860   8.2650520  60.8910080  11.4741970
   9.3307110  61.4125300  10.5338420  10.5857730  70.2200320  13.1566340
   9.9021250  70.8899430  13.1483010  11.1252020  70.4180970  12.3911200
  12.0381870  60.0479980  11.2848070  11.0906780  60.0818960  11.4163500
  12.3631860  60.8618930  11.6697430   8.1216470  72.0644450  11.8711520
   8.1343630  71.6606740  11.0033780   7.5691690  72.8391740  11.7672950
   9.4161890  68.7860670   6.9601690   9.3058220  67.8435000   7.0851110
   9.4130140  69.1476310   7.8464450   7.5201910  66.9674290  13.1994130
   7.9370700  66.7534400  12.3647590   8.2441730  67.2247080  13.7702750
   4.9582170  64.4125990   6.3164180   4.0311450  64.3463370   6.5452650
   5.1106990  65.3506120   6.2019420   4.9451250  60.6842990   3.3131340
   4.0054920  60.8456950   3.3983800   5.2634510  61.4028670   2.7667330
  11.4664010  65.3661510  13.2910370  10.6382640  65.4354600  12.8160500
  12.0614490  65.9515820  12.8226200   8.9879460  65.9746290   6.8199430
   8.3691880  65.6365840   6.1725730   8.9703910  65.3306050   7.5278620
   8.4306020  62.1530830  14.2365240   8.0177200  62.9784540  14.4905230
   7.6981970  61.5675870  14.0441600   9.1206120  72.1990160  14.9246220
   8.6436680  73.0062350  14.7318830   8.4367910  71.5468490  15.0772430
   7.1644160  65.2133100   3.8272180   7.6037440  64.3755530   3.6810000
   7.8772580  65.8462500   3.9136320   5.2739540  70.1529170   7.7953420
   5.7135450  70.8953500   7.3808810   5.2126430  70.3955740   8.7192380
  10.7461300  56.4675910   2.1413220  10.4333960  56.5602740   3.0412290
  11.5073770  57.0456940   2.0910650  12.7005330  71.9602100  19.9937610
  13.1765050  72.4384990  20.6726690  13.3212490  71.8919590  19.2683110
  12.1038580  69.1514950  17.1537620  12.2301640  68.9126830  16.2354800
  12.1459960  68.3199490  17.6259700   5.9655320  72.8542950  15.7232430
   6.4799990  72.7650960  16.5254860   5.1224400  73.2002650  16.0160340
   7.9409720  73.1398290   5.1516430   7.7810860  72.8501230   6.0498260
   7.7756430  72.3638420   4.6161660   7.6435850  70.6485850   3.7114430
   6.9501010  70.6463140   3.0516710   8.3858710  70.2245170   3.2808600
   7.2085780  72.2748560   7.7862920   7.6642730  71.4937940   8.1001540
   7.5478300  72.9855380   8.3304100  11.9562590  61.2047410  18.1187360
  11.3406860  61.7127080  17.5902820  11.6359010  60.3045740  18.0613300
   4.0176910  60.0439300  15.5849550   3.5556280  60.2522320  16.3969490
   3.6155020  59.2298650  15.2820220   9.0181420  61.2648250  16.7146210
   8.1675010  60.9654000  17.0355280   8.8583210  61.5090260  15.8030030
   6.1131130  62.7650000  18.8145000   6.4384540  61.9313750  18.4747230
   6.9011460  63.2878520  18.9623330   2.8465920  56.7981480   4.8620060
   2.2220100  56.7941350   5.5873370   2.7596040  55.9312440   4.4656030
   1.7683000  57.7218110  11.8403830   2.0655330  58.6280940  11.7595850
   2.3168560  57.2336890  11.2263400   6.7519080  62.3067720   6.3086130
   6.1527970  63.0303520   6.1249750   7.2998690  62.2444500   5.5262580
   1.9620530  63.1989930  18.3755750   1.8664130  62.2584660  18.2256150
   2.8052510  63.4205000  17.9803820   5.3583950  60.9431260   8.3389410
   5.7513520  61.2603460   7.5258100   5.7200800  60.0643140   8.4533930
   3.6676120  59.6938570  19.5986270   2.9774440  59.5010770  20.2332360
   4.4108420  59.9773210  20.1310570   5.9439090  63.5337010  12.4340190
   5.2120210  64.0423820  12.7830290   5.5463430  62.7166990  12.1328970
   2.3816480  60.2091210  10.8392680   2.3852540  59.7681160   9.9897220
   3.2767600  60.5308540  10.9464500   2.4436630  61.2103290   3.8299440
   2.5649450  61.1689770   4.7785260   2.0585140  62.0727440   3.6746170
   6.4065000  58.9870690  11.8463130   6.4237740  59.4379340  12.6904980
   6.1580580  58.0876330  12.0596570   9.8335750  56.4002870  17.6849510
  10.1581520  55.6692530  18.2107490   9.8692260  56.0816510  16.7830500
   2.6824450  64.2692990  12.5858090   3.0494580  63.7951560  13.3319430
   2.4929510  65.1434560  12.9266430   9.7593590  66.5127980  11.2935540
  10.4792710  67.0083270  10.9031650   9.5575410  65.8345870  10.6489410
   5.2203530  57.9065940   5.4364930   4.4068140  57.4079110   5.3610240
   5.0265480  58.7464190   5.0201280   5.1412390  66.5837040  17.1804540
   5.0749700  65.6632710  16.9262130   4.5117530  66.6812480  17.8949180
   7.9351920  62.2785590   3.7327090   8.8231540  62.5902820   3.5578430
   7.9057010  61.4057840   3.3407670   3.9312510  68.4509280   4.4115260
   4.2728210  69.1951510   3.9158580   3.1025220  68.7640400   4.7740090
   5.0729120  69.4057610  16.9308340   5.0873660  68.4738570  16.7127250
   4.3654220  69.4917370  17.5698110  10.2066190  63.5897430   3.2006950
  10.1229910  64.0211650   2.3503390  10.9260380  64.0495780   3.6333770
  11.2840330  66.0464950  16.2776920  10.5588520  66.6393730  16.0806310
  11.8115790  66.0388490  15.4790290  11.2353440  70.4439690   5.9289080
  10.5929600  69.7895310   6.2032800  10.8484100  70.8494780   5.1529750
   6.8139920  67.7725120   9.7760770   7.1663740  67.1753250   9.1162140
   5.9302250  67.4469350   9.9469020   2.9003200  68.5322810   7.1831180
   3.5874330  69.0792020   7.5638770   2.1135620  69.0763540   7.2180790
   2.2030410  65.5368840   6.7956540   2.6593190  66.3474090   7.0216730
   1.8518620  65.2191980   7.6275030   4.5063020  71.0475180  14.0248840
   5.1505240  71.2534560  14.7022260   4.8692460  70.2863580  13.5719690
   5.7795100  69.0507530  12.7426290   6.4217330  68.3500690  12.8558460
   6.3044450  69.8305970  12.5623180   9.6250820  69.3356150   2.4665430
   9.3988400  68.6186590   3.0590070   9.2347020  69.0868590   1.6287180
   7.5532720  69.8502430  15.9462350   7.8888960  70.4369120  16.6240270
   6.6333060  69.7195140  16.1760140   9.2067070  67.2528090   4.1279590
   8.9188770  67.7140780   4.9157470  10.0019240  66.7925860   4.3963810
   3.3821300  69.8993760  19.1150410   3.0618170  69.1803000  19.6596100
   2.7079660  70.5748830  19.1886470   6.5974900  60.1319920  14.4787210
   6.9655720  59.3115130  14.8066780   5.7373100  60.1921810  14.8942860
   9.9636930  59.0876860   5.2874770   9.3350090  59.1922530   4.5733000
   9.4688850  59.3073640   6.0768650   4.4095070  70.8082450   2.7208750
   4.5107050  70.6046440   1.7910730   3.5096810  70.5540730   2.9256530
   3.5576890  62.7859510  14.7025180   4.0562140  63.2605330  15.3677030
   3.6999840  61.8623030  14.9095210   5.9636390  58.0913470   8.1428440
   5.8404170  58.1099600   7.1937950   6.9120950  58.1392410   8.2626840
   3.0513180  73.3268770   7.4156420   3.3054680  73.2890160   6.4935790
   2.1025660  73.2002100   7.4084670  10.7643750  59.0027470  15.5453570
  10.2617350  59.7432870  15.8847380  11.5800410  59.3911470  15.2290360
   9.0565760  64.2460650   8.9914930   8.1155900  64.2610880   9.1662620
   9.3709830  63.4596610   9.4375230  11.0591340  71.4169500  10.6669190
  11.1838760  72.2400670  11.1393000  11.9256900  71.2060230  10.3193340
   6.3731780  68.8026650  19.4747310   5.7669940  68.8258250  18.7343060
   6.0685890  68.0709690  20.0114560   7.8032150  72.5306940  18.0856720
   8.7553900  72.4464960  18.0356960   7.6560370  73.1948650  18.7590510
  10.6941350  71.9101150   3.5848630  10.4082860  71.4966290   2.7702810
  10.4960900  72.8388860   3.4649150   5.3991310  66.9654460   2.6296230
   4.8501410  67.4123760   3.2738970   6.0210570  66.4603710   3.1533900
   9.4526250  68.3196560  18.5618490  10.1935720  68.6572320  18.0585950
   8.6898930  68.4888620  18.0088260   8.1271910  66.3711390  17.0973700
   8.5412930  66.5256470  17.9464120   7.1922910  66.4966610  17.2599480
   8.5994080  63.7107550  19.1012850   9.1814850  62.9559870  19.0133330
   8.7755850  64.2414990  18.3244330   2.4827590  57.4277540  14.4457190
   2.0344890  57.4501800  13.6002740   1.8492790  57.0296560  15.0427490
   2.8887140  66.3231870  15.0669630   3.3075250  67.1664600  14.8945870
   1.9695770  66.4603910  14.8376410   5.2251040  64.0548050  16.4507470
   5.3447250  63.4589190  17.1902310   6.0845040  64.0917740  16.0308770
   7.5638940  64.6085240  15.0269980   7.0374160  65.1327860  14.4235120
   7.9070280  65.2412630  15.6579710   6.8113240  60.2135210  17.9416310
   6.1228760  59.5516750  17.8766300   7.5319260  59.7673480  18.3864770
   7.4413640  56.8086840   4.0006570   7.7215930  55.9654740   4.3565990
   6.6679370  57.0409950   4.5145320   3.5956770  73.8636090  16.4414010
   3.5215470  74.7671230  16.7486380   2.6935610  73.5447990  16.4136080
   4.1442100  73.0294600   4.0640370   5.0392890  73.3679570   4.0859130
   4.1759730  72.3074010   3.4364650  11.1236450  71.5598270  16.7706570
  10.5238440  71.6190830  16.0270490  11.2530350  70.6203250  16.9003420
  12.3637900  69.3016090   2.1076280  11.5330860  69.3692740   2.5783510
  12.5409730  70.1920210   1.8043140  11.8194360  66.0463570   4.6110480
  12.5813270  66.6160220   4.7170170  11.8348730  65.4790770   5.3818790
  12.8254330  66.9013670   9.4552410  13.1963160  66.1180990   9.0488380
  13.4656260  67.5902770   9.2769710   9.8088090  68.2850250  14.8682730
   8.9947930  68.7147410  15.1308520  10.2162290  68.8968660  14.2551780
  11.8713530  66.3397940   1.7683000  12.1462370  67.2476820   1.6402220
  11.6824270  66.2760470   2.7044990   8.2689140  59.3642790   3.0636630
   8.6874020  59.1773770   2.2233290   7.9625200  58.5121840   3.3739560
  11.7678870  64.2766930   6.7612430  11.3922470  63.5094860   6.3293720
  11.0381990  64.6589630   7.2487360  11.1578490  63.4238450  16.3951950
  10.9264580  63.1951200  15.4949900  11.4183040  64.3438000  16.3496840
   9.5966560  58.6494880  19.1731650  10.4736740  58.6578280  19.5565650
   9.6087400  57.9125720  18.5624000  11.0429830  62.5024420  10.0619670
  11.5667310  62.0087070   9.4309840  11.6289250  62.6374780  10.8067240
  11.2219550  62.5864290  13.5839220  10.2722260  62.5527830  13.6984210
  11.4032560  63.4964400  13.3488990  10.5329800  61.7597770   6.0012080
  11.0288920  61.5268640   6.7860960  10.3345870  60.9209610   5.5849720
  11.9616960  60.3958720   8.5349760  11.8516240  60.2414760   9.4732030
  12.7224550  59.8679660   8.2925170  10.3082680  56.3352850  14.9932760
  10.9454900  56.9486990  15.3591950  10.4557570  56.3713510  14.0481990
  12.8507230  58.2266640   1.7755900  13.7756540  58.0947820   1.5674190
  12.8283020  58.3059460   2.7292350  12.9245720  58.9977300   4.4012610
  12.1297220  58.9322420   4.9305520  13.1289000  59.9327940   4.3897960
   9.8664140  73.0368850   8.3951000  10.4623210  72.7153420   7.7185420
  10.1242290  72.5640670   9.1864270   3.6787160  57.4879040  17.9007860
   3.6176050  58.0800870  18.6503270   4.6187540  57.3805000  17.7558120
   6.3161720  57.1449100  17.5400150   6.9302130  57.4628390  16.8781230
   6.8611280  56.6597690  18.1596010  12.7336900  73.0440730  14.9461990
  12.2395180  73.4409600  14.2289120  12.1250190  72.4189940  15.3399270
   7.0569760  55.7081240  13.8669440   6.1829600  56.0416350  13.6642370
   6.9480510  55.2354420  14.6921310   7.9641740  57.9152110  15.2511160
   7.6355100  57.1003870  14.8712890   8.9124040  57.8721920  15.1276850
  10.4176350  73.6864150  12.2248730   9.9579320  74.4379960  11.8506750
   9.7888810  72.9670620  12.1663530   3.5867570  72.8860880  12.2265840
   3.8745380  72.6315180  11.3498850   4.0990790  72.3338240  12.8171410
   4.8044580  56.6251080  12.8062350   4.0216370  57.0996580  13.0859110
   4.5107510  55.7205910  12.6975530   9.3565650  57.3274180  10.8511440
   9.7973740  57.2719280  10.0033040   9.0873240  58.2432190  10.9221620
  11.2204220  56.9589420   8.8620260  11.1592620  56.0150640   8.7151280
  11.9996250  57.0669510   9.4073720   2.6898800  59.0437830   8.3178380
   1.8773310  58.6694720   7.9774260   3.1940440  58.2882910   8.6199570
   7.1923780  55.7080280   9.5561450   7.7953150  56.2800490  10.0309970
   6.4516770  56.2719720   9.3335350  10.3358380  56.1101840   4.8301730
  10.5309010  57.0085290   5.0969160   9.5488250  55.8788920   5.3234680
   3.6539930  73.8076980  19.5934040   4.5807240  73.5721250  19.6370000
   3.6390360  74.6348980  19.1120070  11.8884990  73.3502550   6.5908290
  12.0637180  72.6640290   5.9469210  11.1906560  73.8749600   6.1984960
   7.4419000  55.8875310  19.9356390   7.3284450  56.2069920  20.8307910
   8.2588740  56.2887820  19.6393670  10.2217490  73.0346840  19.4175080
  11.0142810  72.5396070  19.2101040  10.5150640  73.7136980  20.0250690
   6.3477150  45.1324290  65.3965090   6.2671200  44.2178900  65.1256800
   5.9341570  45.6291360  64.6904800   4.4795190  46.9103310  67.2774360
   3.7037290  46.4303750  67.5672930   5.1308120  46.2308960  67.1030520
   8.5002620  51.3163500  66.0573490   8.0384150  50.5450740  66.3860660
   9.3128170  51.3429570  66.5625940   4.7265930  53.6021510  65.6777480
   4.1077370  54.0579010  65.1071920   5.5817710  53.7572970  65.2767180
   3.9204180  49.5860500  67.2844520   3.8512460  48.6450440  67.1233650
   4.6824040  49.6761910  67.8567090   4.9509350  42.3930880  67.5113450
   5.3274170  41.5202760  67.3987120   4.8528860  42.7289580  66.6203890
   8.7333470  39.8881320  64.4441790   9.5543090  39.3977890  64.4867270
   8.7667550  40.4778980  65.1973630  13.0233020  41.9048070  71.0085420
  12.3185190  42.2929780  70.4900530  13.2890940  42.5998360  71.6106350
   5.5929280  48.4860750  63.0709390   4.9746550  48.9510200  62.5072110
   6.1052530  49.1788230  63.4878900   8.9694950  41.8281700  67.2169330
   8.2650520  42.1166590  67.7972440   9.3307110  42.6381810  66.8568890
  10.5857730  51.4456830  69.4796810   9.9021250  52.1155940  69.4713480
  11.1252020  51.6437480  68.7141670  12.0381870  41.2736490  67.6078540
  11.0906780  41.3075470  67.7393970  12.3631860  42.0875440  67.9927900
   8.1216470  53.2900960  68.1941990   8.1343630  52.8863250  67.3264250
   7.5691690  54.0648250  68.0903420   9.4161890  50.0117180  63.2832160
   9.3058220  49.0691510  63.4081580   9.4130140  50.3732820  64.1694920
   7.5201910  48.1930800  69.5224600   7.9370700  47.9790910  68.6878060
   8.2441730  48.4503590  70.0933220   4.9582170  45.6382500  62.6394650
   4.0311450  45.5719880  62.8683120   5.1106990  46.5762630  62.5249890
   4.9451250  41.9099500  59.6361810   4.0054920  42.0713460  59.7214270
   5.2634510  42.6285180  59.0897800  11.4664010  46.5918020  69.6140840
  10.6382640  46.6611110  69.1390970  12.0614490  47.1772330  69.1456670
   8.9879460  47.2002800  63.1429900   8.3691880  46.8622350  62.4956200
   8.9703910  46.5562560  63.8509090   8.4306020  43.3787340  70.5595710
   8.0177200  44.2041050  70.8135700   7.6981970  42.7932380  70.3672070
   9.1206120  53.4246670  71.2476690   8.6436680  54.2318860  71.0549300
   8.4367910  52.7725000  71.4002900   7.1644160  46.4389610  60.1502650
   7.6037440  45.6012040  60.0040470   7.8772580  47.0719010  60.2366790
   5.2739540  51.3785680  64.1183890   5.7135450  52.1210010  63.7039280
   5.2126430  51.6212250  65.0422850  10.7461300  37.6932420  58.4643690
  10.4333960  37.7859250  59.3642760  11.5073770  38.2713450  58.4141120
  12.1038580  50.3771460  73.4768090  12.2301640  50.1383340  72.5585270
  12.1459960  49.5456000  73.9490170   5.9655320  54.0799460  72.0462900
   6.4799990  53.9907470  72.8485330   5.1224400  54.4259160  72.3390810
   7.9409720  54.3654800  61.4746900   7.7810860  54.0757740  62.3728730
   7.7756430  53.5894930  60.9392130   7.6435850  51.8742360  60.0344900
   6.9501010  51.8719650  59.3747180   8.3858710  51.4501680  59.6039070
   7.2085780  53.5005070  64.1093390   7.6642730  52.7194450  64.4232010
   7.5478300  54.2111890  64.6534570  11.9562590  42.4303920  74.4417830
  11.3406860  42.9383590  73.9133290  11.6359010  41.5302250  74.3843770
   4.0176910  41.2695810  71.9080020   3.5556280  41.4778830  72.7199960
   3.6155020  40.4555160  71.6050690   9.0181420  42.4904760  73.0376680
   8.1675010  42.1910510  73.3585750   8.8583210  42.7346770  72.1260500
   6.1131130  43.9906510  75.1375470   6.4384540  43.1570260  74.7977700
   6.9011460  44.5135030  75.2853800   2.8465920  38.0237990  61.1850530
   2.2220100  38.0197860  61.9103840   2.7596040  37.1568950  60.7886500
   1.7683000  38.9474620  68.1634300   2.0655330  39.8537450  68.0826320
   2.3168560  38.4593400  67.5493870   6.7519080  43.5324230  62.6316600
   6.1527970  44.2560030  62.4480220   7.2998690  43.4701010  61.8493050
   1.9620530  44.4246440  74.6986220   1.8664130  43.4841170  74.5486620
   2.8052510  44.6461510  74.3034290   5.3583950  42.1687770  64.6619880
   5.7513520  42.4859970  63.8488570   5.7200800  41.2899650  64.7764400
   5.9439090  44.7593520  68.7570660   5.2120210  45.2680330  69.1060760
   5.5463430  43.9423500  68.4559440   2.3816480  41.4347720  67.1623150
   2.3852540  40.9937670  66.3127690   3.2767600  41.7565050  67.2694970
   2.4436630  42.4359800  60.1529910   2.5649450  42.3946280  61.1015730
   2.0585140  43.2983950  59.9976640   6.4065000  40.2127200  68.1693600
   6.4237740  40.6635850  69.0135450   6.1580580  39.3132840  68.3827040
   9.8335750  37.6259380  74.0079980  10.1581520  36.8949040  74.5337960
   9.8692260  37.3073020  73.1060970   2.6824450  45.4949500  68.9088560
   3.0494580  45.0208070  69.6549900   2.4929510  46.3691070  69.2496900
   9.7593590  47.7384490  67.6166010  10.4792710  48.2339780  67.2262120
   9.5575410  47.0602380  66.9719880   5.2203530  39.1322450  61.7595400
   4.4068140  38.6335620  61.6840710   5.0265480  39.9720700  61.3431750
   5.1412390  47.8093550  73.5035010   5.0749700  46.8889220  73.2492600
   4.5117530  47.9068990  74.2179650   7.9351920  43.5042100  60.0557560
   8.8231540  43.8159330  59.8808900   7.9057010  42.6314350  59.6638140
   3.9312510  49.6765790  60.7345730   4.2728210  50.4208020  60.2389050
   3.1025220  49.9896910  61.0970560   5.0729120  50.6314120  73.2538810
   5.0873660  49.6995080  73.0357720   4.3654220  50.7173880  73.8928580
  10.2066190  44.8153940  59.5237420  10.1229910  45.2468160  58.6733860
  10.9260380  45.2752290  59.9564240  11.2840330  47.2721460  72.6007390
  10.5588520  47.8650240  72.4036780  11.8115790  47.2645000  71.8020760
  11.2353440  51.6696200  62.2519550  10.5929600  51.0151820  62.5263270
  10.8484100  52.0751290  61.4760220   6.8139920  48.9981630  66.0991240
   7.1663740  48.4009760  65.4392610   5.9302250  48.6725860  66.2699490
   2.9003200  49.7579320  63.5061650   3.5874330  50.3048530  63.8869240
   2.1135620  50.3020050  63.5411260   2.2030410  46.7625350  63.1187010
   2.6593190  47.5730600  63.3447200   1.8518620  46.4448490  63.9505500
   4.5063020  52.2731690  70.3479310   5.1505240  52.4791070  71.0252730
   4.8692460  51.5120090  69.8950160   5.7795100  50.2764040  69.0656760
   6.4217330  49.5757200  69.1788930   6.3044450  51.0562480  68.8853650
   9.6250820  50.5612660  58.7895900   9.3988400  49.8443100  59.3820540
   9.2347020  50.3125100  57.9517650   7.5532720  51.0758940  72.2692820
   7.8888960  51.6625630  72.9470740   6.6333060  50.9451650  72.4990610
   9.2067070  48.4784600  60.4510060   8.9188770  48.9397290  61.2387940
  10.0019240  48.0182370  60.7194280   3.3821300  51.1250270  75.4380880
   3.0618170  50.4059510  75.9826570   2.7079660  51.8005340  75.5116940
   6.5974900  41.3576430  70.8017680   6.9655720  40.5371640  71.1297250
   5.7373100  41.4178320  71.2173330   9.9636930  40.3133370  61.6105240
   9.3350090  40.4179040  60.8963470   9.4688850  40.5330150  62.3999120
   4.4095070  52.0338960  59.0439220   4.5107050  51.8302950  58.1141200
   3.5096810  51.7797240  59.2487000   3.5576890  44.0116020  71.0255650
   4.0562140  44.4861840  71.6907500   3.6999840  43.0879540  71.2325680
   5.9636390  39.3169980  64.4658910   5.8404170  39.3356110  63.5168420
   6.9120950  39.3648920  64.5857310   3.0513180  54.5525280  63.7386890
   3.3054680  54.5146670  62.8166260   2.1025660  54.4258610  63.7315140
  10.7643750  40.2283980  71.8684040  10.2617350  40.9689380  72.2077850
  11.5800410  40.6167980  71.5520830   9.0565760  45.4717160  65.3145400
   8.1155900  45.4867390  65.4893090   9.3709830  44.6853120  65.7605700
  11.0591340  52.6426010  66.9899660  11.1838760  53.4657180  67.4623470
  11.9256900  52.4316740  66.6423810   7.8032150  53.7563450  74.4087190
   8.7553900  53.6721470  74.3587430   7.6560370  54.4205160  75.0820980
  10.6941350  53.1357660  59.9079100  10.4082860  52.7222800  59.0933280
  10.4960900  54.0645370  59.7879620   2.1588580  49.1290940  58.3484710
   2.0539220  48.5143290  59.0746090   1.9912800  48.6056830  57.5647720
   5.3991310  48.1910970  58.9526700   4.8501410  48.6380270  59.5969440
   6.0210570  47.6860220  59.4764370   9.4526250  49.5453070  74.8848960
  10.1935720  49.8828830  74.3816420   8.6898930  49.7145130  74.3318730
   3.5794070  46.1739500  58.0969100   4.0999730  45.4588520  57.7310250
   4.2262470  46.8125370  58.3969610   8.1271910  47.5967900  73.4204170
   8.5412930  47.7512980  74.2694590   7.1922910  47.7223120  73.5829950
   8.5994080  44.9364060  75.4243320   9.1814850  44.1816380  75.3363800
   8.7755850  45.4671500  74.6474800   2.4827590  38.6534050  70.7687660
   2.0344890  38.6758310  69.9233210   1.8492790  38.2553070  71.3657960
   2.8887140  47.5488380  71.3900100   3.3075250  48.3921110  71.2176340
   1.9695770  47.6860420  71.1606880   5.2251040  45.2804560  72.7737940
   5.3447250  44.6845700  73.5132780   6.0845040  45.3174250  72.3539240
   7.5638940  45.8341750  71.3500450   7.0374160  46.3584370  70.7465590
   7.9070280  46.4669140  71.9810180   6.8113240  41.4391720  74.2646780
   6.1228760  40.7773260  74.1996770   7.5319260  40.9929990  74.7095240
   7.4413640  38.0343350  60.3237040   7.7215930  37.1911250  60.6796460
   6.6679370  38.2666460  60.8375790   3.5956770  55.0892600  72.7644480
   3.5215470  55.9927740  73.0716850   2.6935610  54.7704500  72.7366550
   4.1442100  54.2551110  60.3870840   5.0392890  54.5936080  60.4089600
   4.1759730  53.5330520  59.7595120  11.1236450  52.7854780  73.0937040
  10.5238440  52.8447340  72.3500960  11.2530350  51.8459760  73.2233890
  12.3637900  50.5272600  58.4306750  11.5330860  50.5949250  58.9013980
  12.5409730  51.4176720  58.1273610  11.8194360  47.2720080  60.9340950
  12.5813270  47.8416730  61.0400640  11.8348730  46.7047280  61.7049260
  12.8254330  48.1270180  65.7782880  13.1963160  47.3437500  65.3718850
  13.4656260  48.8159280  65.6000180   9.8088090  49.5106760  71.1913200
   8.9947930  49.9403920  71.4538990  10.2162290  50.1225170  70.5782250
  11.8713530  47.5654450  58.0913470  12.1462370  48.4733330  57.9632690
  11.6824270  47.5016980  59.0275460   8.2689140  40.5899300  59.3867100
   8.6874020  40.4030280  58.5463760   7.9625200  39.7378350  59.6970030
  11.7678870  45.5023440  63.0842900  11.3922470  44.7351370  62.6524190
  11.0381990  45.8846140  63.5717830  11.1578490  44.6494960  72.7182420
  10.9264580  44.4207710  71.8180370  11.4183040  45.5694510  72.6727310
   9.5966560  39.8751390  75.4962120  10.4736740  39.8834790  75.8796120
   9.6087400  39.1382230  74.8854470  11.0429830  43.7280930  66.3850140
  11.5667310  43.2343580  65.7540310  11.6289250  43.8631290  67.1297710
  11.2219550  43.8120800  69.9069690  10.2722260  43.7784340  70.0214680
  11.4032560  44.7220910  69.6719460  10.5329800  42.9854280  62.3242550
  11.0288920  42.7525150  63.1091430  10.3345870  42.1466120  61.9080190
  11.9616960  41.6215230  64.8580230  11.8516240  41.4671270  65.7962500
  12.7224550  41.0936170  64.6155640  10.3082680  37.5609360  71.3163230
  10.9454900  38.1743500  71.6822420  10.4557570  37.5970020  70.3712460
  12.8507230  39.4523150  58.0986370  13.7756540  39.3204330  57.8904660
  12.8283020  39.5315970  59.0522820  12.9245720  40.2233810  60.7243080
  12.1297220  40.1578930  61.2535990  13.1289000  41.1584450  60.7128430
   9.8664140  54.2625360  64.7181470  10.4623210  53.9409930  64.0415890
  10.1242290  53.7897180  65.5094740   3.6787160  38.7135550  74.2238330
   3.6176050  39.3057380  74.9733740   4.6187540  38.6061510  74.0788590
   6.3161720  38.3705610  73.8630620   6.9302130  38.6884900  73.2011700
   6.8611280  37.8854200  74.4826480  12.7336900  54.2697240  71.2692460
  12.2395180  54.6666110  70.5519590  12.1250190  53.6446450  71.6629740
   7.0569760  36.9337750  70.1899910   6.1829600  37.2672860  69.9872840
   6.9480510  36.4610930  71.0151780   7.9641740  39.1408620  71.5741630
   7.6355100  38.3260380  71.1943360   8.9124040  39.0978430  71.4507320
  10.4176350  54.9120660  68.5479200   9.9579320  55.6636470  68.1737220
   9.7888810  54.1927130  68.4894000   3.5867570  54.1117390  68.5496310
   3.8745380  53.8571690  67.6729320   4.0990790  53.5594750  69.1401880
   4.8044580  37.8507590  69.1292820   4.0216370  38.3253090  69.4089580
   4.5107510  36.9462420  69.0206000   9.3565650  38.5530690  67.1741910
   9.7973740  38.4975790  66.3263510   9.0873240  39.4688700  67.2452090
  11.2204220  38.1845930  65.1850730  11.1592620  37.2407150  65.0381750
  11.9996250  38.2926020  65.7304190   2.6898800  40.2694340  64.6408850
   1.8773310  39.8951230  64.3004730   3.1940440  39.5139420  64.9430040
   7.1923780  36.9336790  65.8791920   7.7953150  37.5057000  66.3540440
   6.4516770  37.4976230  65.6565820  10.3358380  37.3358350  61.1532200
  10.5309010  38.2341800  61.4199630   9.5488250  37.1045430  61.6465150
   3.6539930  55.0333490  75.9164510   4.5807240  54.7977760  75.9600470
   3.6390360  55.8605490  75.4350540  11.8884990  54.5759060  62.9138760
  12.0637180  53.8896800  62.2699680  11.1906560  55.1006110  62.5215430
   6.3477150  45.1324290  46.6221600   6.2671200  44.2178900  46.3513310
   5.9341570  45.6291360  45.9161310   4.4795190  46.9103310  48.5030870
   3.7037290  46.4303750  48.7929440   5.1308120  46.2308960  48.3287030
   8.5002620  51.3163500  47.2830000   8.0384150  50.5450740  47.6117170
   9.3128170  51.3429570  47.7882450   4.7265930  53.6021510  46.9033990
   4.1077370  54.0579010  46.3328430   5.5817710  53.7572970  46.5023690
   3.9204180  49.5860500  48.5101030   3.8512460  48.6450440  48.3490160
   4.6824040  49.6761910  49.0823600   4.9509350  42.3930880  48.7369960
   5.3274170  41.5202760  48.6243630   4.8528860  42.7289580  47.8460400
   8.7333470  39.8881320  45.6698300   9.5543090  39.3977890  45.7123780
   8.7667550  40.4778980  46.4230140  13.0233020  41.9048070  52.2341930
  12.3185190  42.2929780  51.7157040  13.2890940  42.5998360  52.8362860
   5.5929280  48.4860750  44.2965900   4.9746550  48.9510200  43.7328620
   6.1052530  49.1788230  44.7135410   8.9694950  41.8281700  48.4425840
   8.2650520  42.1166590  49.0228950   9.3307110  42.6381810  48.0825400
  12.0381870  41.2736490  48.8335050  11.0906780  41.3075470  48.9650480
  12.3631860  42.0875440  49.2184410   8.1216470  53.2900960  49.4198500
   8.1343630  52.8863250  48.5520760   7.5691690  54.0648250  49.3159930
   9.4161890  50.0117180  44.5088670   9.3058220  49.0691510  44.6338090
   9.4130140  50.3732820  45.3951430   7.5201910  48.1930800  50.7481110
   7.9370700  47.9790910  49.9134570   8.2441730  48.4503590  51.3189730
   4.9582170  45.6382500  43.8651160   4.0311450  45.5719880  44.0939630
   5.1106990  46.5762630  43.7506400   4.9451250  41.9099500  40.8618320
   4.0054920  42.0713460  40.9470780   5.2634510  42.6285180  40.3154310
  11.4664010  46.5918020  50.8397350  10.6382640  46.6611110  50.3647480
  12.0614490  47.1772330  50.3713180   8.9879460  47.2002800  44.3686410
   8.3691880  46.8622350  43.7212710   8.9703910  46.5562560  45.0765600
   8.4306020  43.3787340  51.7852220   8.0177200  44.2041050  52.0392210
   7.6981970  42.7932380  51.5928580   9.1206120  53.4246670  52.4733200
   8.6436680  54.2318860  52.2805810   8.4367910  52.7725000  52.6259410
   7.1644160  46.4389610  41.3759160   7.6037440  45.6012040  41.2296980
   7.8772580  47.0719010  41.4623300   5.2739540  51.3785680  45.3440400
   5.7135450  52.1210010  44.9295790   5.2126430  51.6212250  46.2679360
  10.7461300  37.6932420  39.6900200  10.4333960  37.7859250  40.5899270
  11.5073770  38.2713450  39.6397630  12.7005330  53.1858610  57.5424590
  13.1765050  53.6641500  58.2213670  13.3212490  53.1176100  56.8170090
  12.1038580  50.3771460  54.7024600  12.2301640  50.1383340  53.7841780
  12.1459960  49.5456000  55.1746680   5.9655320  54.0799460  53.2719410
   6.4799990  53.9907470  54.0741840   5.1224400  54.4259160  53.5647320
   7.9409720  54.3654800  42.7003410   7.7810860  54.0757740  43.5985240
   7.7756430  53.5894930  42.1648640   7.6435850  51.8742360  41.2601410
   6.9501010  51.8719650  40.6003690   8.3858710  51.4501680  40.8295580
   7.2085780  53.5005070  45.3349900   7.6642730  52.7194450  45.6488520
   7.5478300  54.2111890  45.8791080  11.9562590  42.4303920  55.6674340
  11.3406860  42.9383590  55.1389800  11.6359010  41.5302250  55.6100280
   4.0176910  41.2695810  53.1336530   3.5556280  41.4778830  53.9456470
   3.6155020  40.4555160  52.8307200   9.0181420  42.4904760  54.2633190
   8.1675010  42.1910510  54.5842260   8.8583210  42.7346770  53.3517010
   6.1131130  43.9906510  56.3631980   6.4384540  43.1570260  56.0234210
   6.9011460  44.5135030  56.5110310   2.8465920  38.0237990  42.4107040
   2.2220100  38.0197860  43.1360350   2.7596040  37.1568950  42.0143010
   1.7683000  38.9474620  49.3890810   2.0655330  39.8537450  49.3082830
   2.3168560  38.4593400  48.7750380   6.7519080  43.5324230  43.8573110
   6.1527970  44.2560030  43.6736730   7.2998690  43.4701010  43.0749560
   1.9620530  44.4246440  55.9242730   1.8664130  43.4841170  55.7743130
   2.8052510  44.6461510  55.5290800   5.3583950  42.1687770  45.8876390
   5.7513520  42.4859970  45.0745080   5.7200800  41.2899650  46.0020910
   3.6676120  40.9195080  57.1473250   2.9774440  40.7267280  57.7819340
   4.4108420  41.2029720  57.6797550   5.9439090  44.7593520  49.9827170
   5.2120210  45.2680330  50.3317270   5.5463430  43.9423500  49.6815950
   2.3816480  41.4347720  48.3879660   2.3852540  40.9937670  47.5384200
   3.2767600  41.7565050  48.4951480   2.4436630  42.4359800  41.3786420
   2.5649450  42.3946280  42.3272240   2.0585140  43.2983950  41.2233150
   6.4065000  40.2127200  49.3950110   6.4237740  40.6635850  50.2391960
   6.1580580  39.3132840  49.6083550   9.8335750  37.6259380  55.2336490
  10.1581520  36.8949040  55.7594470   9.8692260  37.3073020  54.3317480
   2.6824450  45.4949500  50.1345070   3.0494580  45.0208070  50.8806410
   2.4929510  46.3691070  50.4753410   9.7593590  47.7384490  48.8422520
  10.4792710  48.2339780  48.4518630   9.5575410  47.0602380  48.1976390
   5.2203530  39.1322450  42.9851910   4.4068140  38.6335620  42.9097220
   5.0265480  39.9720700  42.5688260   5.1412390  47.8093550  54.7291520
   5.0749700  46.8889220  54.4749110   4.5117530  47.9068990  55.4436160
   7.9351920  43.5042100  41.2814070   8.8231540  43.8159330  41.1065410
   7.9057010  42.6314350  40.8894650   3.9312510  49.6765790  41.9602240
   4.2728210  50.4208020  41.4645560   3.1025220  49.9896910  42.3227070
   5.0729120  50.6314120  54.4795320   5.0873660  49.6995080  54.2614230
   4.3654220  50.7173880  55.1185090  10.2066190  44.8153940  40.7493930
  10.1229910  45.2468160  39.8990370  10.9260380  45.2752290  41.1820750
  11.2840330  47.2721460  53.8263900  10.5588520  47.8650240  53.6293290
  11.8115790  47.2645000  53.0277270  11.2353440  51.6696200  43.4776060
  10.5929600  51.0151820  43.7519780  10.8484100  52.0751290  42.7016730
   6.8139920  48.9981630  47.3247750   7.1663740  48.4009760  46.6649120
   5.9302250  48.6725860  47.4956000   2.9003200  49.7579320  44.7318160
   3.5874330  50.3048530  45.1125750   2.1135620  50.3020050  44.7667770
   2.2030410  46.7625350  44.3443520   2.6593190  47.5730600  44.5703710
   1.8518620  46.4448490  45.1762010   4.5063020  52.2731690  51.5735820
   5.1505240  52.4791070  52.2509240   4.8692460  51.5120090  51.1206670
   5.7795100  50.2764040  50.2913270   6.4217330  49.5757200  50.4045440
   6.3044450  51.0562480  50.1110160   9.6250820  50.5612660  40.0152410
   9.3988400  49.8443100  40.6077050   9.2347020  50.3125100  39.1774160
   7.5532720  51.0758940  53.4949330   7.8888960  51.6625630  54.1727250
   6.6333060  50.9451650  53.7247120   9.2067070  48.4784600  41.6766570
   8.9188770  48.9397290  42.4644450  10.0019240  48.0182370  41.9450790
   3.3821300  51.1250270  56.6637390   3.0618170  50.4059510  57.2083080
   2.7079660  51.8005340  56.7373450   6.5974900  41.3576430  52.0274190
   6.9655720  40.5371640  52.3553760   5.7373100  41.4178320  52.4429840
   9.9636930  40.3133370  42.8361750   9.3350090  40.4179040  42.1219980
   9.4688850  40.5330150  43.6255630   4.4095070  52.0338960  40.2695730
   4.5107050  51.8302950  39.3397710   3.5096810  51.7797240  40.4743510
   3.5576890  44.0116020  52.2512160   4.0562140  44.4861840  52.9164010
   3.6999840  43.0879540  52.4582190   5.9636390  39.3169980  45.6915420
   5.8404170  39.3356110  44.7424930   6.9120950  39.3648920  45.8113820
   3.0513180  54.5525280  44.9643400   3.3054680  54.5146670  44.0422770
   2.1025660  54.4258610  44.9571650  10.7643750  40.2283980  53.0940550
  10.2617350  40.9689380  53.4334360  11.5800410  40.6167980  52.7777340
   9.0565760  45.4717160  46.5401910   8.1155900  45.4867390  46.7149600
   9.3709830  44.6853120  46.9862210   6.3731780  50.0283160  57.0234290
   5.7669940  50.0514760  56.2830040   6.0685890  49.2966200  57.5601540
   7.8032150  53.7563450  55.6343700   8.7553900  53.6721470  55.5843940
   7.6560370  54.4205160  56.3077490  10.6941350  53.1357660  41.1335610
  10.4082860  52.7222800  40.3189790  10.4960900  54.0645370  41.0136130
   2.1588580  49.1290940  39.5741220   2.0539220  48.5143290  40.3002600
   1.9912800  48.6056830  38.7904230   5.3991310  48.1910970  40.1783210
   4.8501410  48.6380270  40.8225950   6.0210570  47.6860220  40.7020880
   9.4526250  49.5453070  56.1105470  10.1935720  49.8828830  55.6072930
   8.6898930  49.7145130  55.5575240   3.5794070  46.1739500  39.3225610
   4.0999730  45.4588520  38.9566760   4.2262470  46.8125370  39.6226120
   8.1271910  47.5967900  54.6460680   8.5412930  47.7512980  55.4951100
   7.1922910  47.7223120  54.8086460   8.5994080  44.9364060  56.6499830
   9.1814850  44.1816380  56.5620310   8.7755850  45.4671500  55.8731310
   2.4827590  38.6534050  51.9944170   2.0344890  38.6758310  51.1489720
   1.8492790  38.2553070  52.5914470   2.8887140  47.5488380  52.6156610
   3.3075250  48.3921110  52.4432850   1.9695770  47.6860420  52.3863390
   5.2251040  45.2804560  53.9994450   5.3447250  44.6845700  54.7389290
   6.0845040  45.3174250  53.5795750   7.5638940  45.8341750  52.5756960
   7.0374160  46.3584370  51.9722100   7.9070280  46.4669140  53.2066690
   6.8113240  41.4391720  55.4903290   6.1228760  40.7773260  55.4253280
   7.5319260  40.9929990  55.9351750   7.4413640  38.0343350  41.5493550
   7.7215930  37.1911250  41.9052970   6.6679370  38.2666460  42.0632300
   3.5956770  55.0892600  53.9900990   3.5215470  55.9927740  54.2973360
   2.6935610  54.7704500  53.9623060   4.1442100  54.2551110  41.6127350
   5.0392890  54.5936080  41.6346110   4.1759730  53.5330520  40.9851630
  11.1236450  52.7854780  54.3193550  10.5238440  52.8447340  53.5757470
  11.2530350  51.8459760  54.4490400  12.3637900  50.5272600  39.6563260
  11.5330860  50.5949250  40.1270490  12.5409730  51.4176720  39.3530120
  11.8194360  47.2720080  42.1597460  12.5813270  47.8416730  42.2657150
  11.8348730  46.7047280  42.9305770  12.8254330  48.1270180  47.0039390
  13.1963160  47.3437500  46.5975360  13.4656260  48.8159280  46.8256690
   9.8088090  49.5106760  52.4169710   8.9947930  49.9403920  52.6795500
  10.2162290  50.1225170  51.8038760  11.8713530  47.5654450  39.3169980
  12.1462370  48.4733330  39.1889200  11.6824270  47.5016980  40.2531970
   8.2689140  40.5899300  40.6123610   8.6874020  40.4030280  39.7720270
   7.9625200  39.7378350  40.9226540  11.7678870  45.5023440  44.3099410
  11.3922470  44.7351370  43.8780700  11.0381990  45.8846140  44.7974340
  11.1578490  44.6494960  53.9438930  10.9264580  44.4207710  53.0436880
  11.4183040  45.5694510  53.8983820   9.5966560  39.8751390  56.7218630
  10.4736740  39.8834790  57.1052630   9.6087400  39.1382230  56.1110980
  11.0429830  43.7280930  47.6106650  11.5667310  43.2343580  46.9796820
  11.6289250  43.8631290  48.3554220  11.2219550  43.8120800  51.1326200
  10.2722260  43.7784340  51.2471190  11.4032560  44.7220910  50.8975970
  10.5329800  42.9854280  43.5499060  11.0288920  42.7525150  44.3347940
  10.3345870  42.1466120  43.1336700  11.9616960  41.6215230  46.0836740
  11.8516240  41.4671270  47.0219010  12.7224550  41.0936170  45.8412150
  10.3082680  37.5609360  52.5419740  10.9454900  38.1743500  52.9078930
  10.4557570  37.5970020  51.5968970  12.8507230  39.4523150  39.3242880
  13.7756540  39.3204330  39.1161170  12.8283020  39.5315970  40.2779330
  12.9245720  40.2233810  41.9499590  12.1297220  40.1578930  42.4792500
  13.1289000  41.1584450  41.9384940   9.8664140  54.2625360  45.9437980
  10.4623210  53.9409930  45.2672400  10.1242290  53.7897180  46.7351250
   3.6787160  38.7135550  55.4494840   3.6176050  39.3057380  56.1990250
   4.6187540  38.6061510  55.3045100   6.3161720  38.3705610  55.0887130
   6.9302130  38.6884900  54.4268210   6.8611280  37.8854200  55.7082990
   7.0569760  36.9337750  51.4156420   6.1829600  37.2672860  51.2129350
   6.9480510  36.4610930  52.2408290   7.9641740  39.1408620  52.7998140
   7.6355100  38.3260380  52.4199870   8.9124040  39.0978430  52.6763830
  10.4176350  54.9120660  49.7735710   9.9579320  55.6636470  49.3993730
   9.7888810  54.1927130  49.7150510   3.5867570  54.1117390  49.7752820
   3.8745380  53.8571690  48.8985830   4.0990790  53.5594750  50.3658390
   4.8044580  37.8507590  50.3549330   4.0216370  38.3253090  50.6346090
   4.5107510  36.9462420  50.2462510   9.3565650  38.5530690  48.3998420
   9.7973740  38.4975790  47.5520020   9.0873240  39.4688700  48.4708600
  11.2204220  38.1845930  46.4107240  11.1592620  37.2407150  46.2638260
  11.9996250  38.2926020  46.9560700   2.6898800  40.2694340  45.8665360
   1.8773310  39.8951230  45.5261240   3.1940440  39.5139420  46.1686550
   7.1923780  36.9336790  47.1048430   7.7953150  37.5057000  47.5796950
   6.4516770  37.4976230  46.8822330  10.3358380  37.3358350  42.3788710
  10.5309010  38.2341800  42.6456140   9.5488250  37.1045430  42.8721660
   3.6539930  55.0333490  57.1421020   4.5807240  54.7977760  57.1856980
   3.6390360  55.8605490  56.6607050  11.8884990  54.5759060  44.1395270
  12.0637180  53.8896800  43.4956190  11.1906560  55.1006110  43.7471940
   7.4419000  37.1131820  57.4843370   7.3284450  37.4326430  58.3794890
   8.2588740  37.5144330  57.1880650  10.2217490  54.2603350  56.9662060
  11.0142810  53.7652580  56.7588020  10.5150640  54.9393490  57.5737670
   6.3477150  45.1324290  27.8478110   6.2671200  44.2178900  27.5769820
   5.9341570  45.6291360  27.1417820   4.4795190  46.9103310  29.7287380
   3.7037290  46.4303750  30.0185950   5.1308120  46.2308960  29.5543540
   8.5002620  51.3163500  28.5086510   8.0384150  50.5450740  28.8373680
   9.3128170  51.3429570  29.0138960   4.7265930  53.6021510  28.1290500
   4.1077370  54.0579010  27.5584940   5.5817710  53.7572970  27.7280200
   3.9204180  49.5860500  29.7357540   3.8512460  48.6450440  29.5746670
   4.6824040  49.6761910  30.3080110   4.9509350  42.3930880  29.9626470
   5.3274170  41.5202760  29.8500140   4.8528860  42.7289580  29.0716910
   8.7333470  39.8881320  26.8954810   9.5543090  39.3977890  26.9380290
   8.7667550  40.4778980  27.6486650  13.0233020  41.9048070  33.4598440
  12.3185190  42.2929780  32.9413550  13.2890940  42.5998360  34.0619370
   5.5929280  48.4860750  25.5222410   4.9746550  48.9510200  24.9585130
   6.1052530  49.1788230  25.9391920   8.9694950  41.8281700  29.6682350
   8.2650520  42.1166590  30.2485460   9.3307110  42.6381810  29.3081910
  10.5857730  51.4456830  31.9309830   9.9021250  52.1155940  31.9226500
  11.1252020  51.6437480  31.1654690  12.0381870  41.2736490  30.0591560
  11.0906780  41.3075470  30.1906990  12.3631860  42.0875440  30.4440920
   8.1216470  53.2900960  30.6455010   8.1343630  52.8863250  29.7777270
   7.5691690  54.0648250  30.5416440   9.4161890  50.0117180  25.7345180
   9.3058220  49.0691510  25.8594600   9.4130140  50.3732820  26.6207940
   7.5201910  48.1930800  31.9737620   7.9370700  47.9790910  31.1391080
   8.2441730  48.4503590  32.5446240   4.9582170  45.6382500  25.0907670
   4.0311450  45.5719880  25.3196140   5.1106990  46.5762630  24.9762910
   4.9451250  41.9099500  22.0874830   4.0054920  42.0713460  22.1727290
   5.2634510  42.6285180  21.5410820  11.4664010  46.5918020  32.0653860
  10.6382640  46.6611110  31.5903990  12.0614490  47.1772330  31.5969690
   8.9879460  47.2002800  25.5942920   8.3691880  46.8622350  24.9469220
   8.9703910  46.5562560  26.3022110   8.4306020  43.3787340  33.0108730
   8.0177200  44.2041050  33.2648720   7.6981970  42.7932380  32.8185090
   9.1206120  53.4246670  33.6989710   8.6436680  54.2318860  33.5062320
   8.4367910  52.7725000  33.8515920   7.1644160  46.4389610  22.6015670
   7.6037440  45.6012040  22.4553490   7.8772580  47.0719010  22.6879810
   5.2739540  51.3785680  26.5696910   5.7135450  52.1210010  26.1552300
   5.2126430  51.6212250  27.4935870  10.7461300  37.6932420  20.9156710
  10.4333960  37.7859250  21.8155780  11.5073770  38.2713450  20.8654140
  12.7005330  53.1858610  38.7681100  13.1765050  53.6641500  39.4470180
  13.3212490  53.1176100  38.0426600  12.1038580  50.3771460  35.9281110
  12.2301640  50.1383340  35.0098290  12.1459960  49.5456000  36.4003190
   5.9655320  54.0799460  34.4975920   6.4799990  53.9907470  35.2998350
   5.1224400  54.4259160  34.7903830   7.9409720  54.3654800  23.9259920
   7.7810860  54.0757740  24.8241750   7.7756430  53.5894930  23.3905150
   7.6435850  51.8742360  22.4857920   6.9501010  51.8719650  21.8260200
   8.3858710  51.4501680  22.0552090   7.2085780  53.5005070  26.5606410
   7.6642730  52.7194450  26.8745030   7.5478300  54.2111890  27.1047590
  11.9562590  42.4303920  36.8930850  11.3406860  42.9383590  36.3646310
  11.6359010  41.5302250  36.8356790   4.0176910  41.2695810  34.3593040
   3.5556280  41.4778830  35.1712980   3.6155020  40.4555160  34.0563710
   9.0181420  42.4904760  35.4889700   8.1675010  42.1910510  35.8098770
   8.8583210  42.7346770  34.5773520   6.1131130  43.9906510  37.5888490
   6.4384540  43.1570260  37.2490720   6.9011460  44.5135030  37.7366820
   2.8465920  38.0237990  23.6363550   2.2220100  38.0197860  24.3616860
   2.7596040  37.1568950  23.2399520   1.7683000  38.9474620  30.6147320
   2.0655330  39.8537450  30.5339340   2.3168560  38.4593400  30.0006890
   6.7519080  43.5324230  25.0829620   6.1527970  44.2560030  24.8993240
   7.2998690  43.4701010  24.3006070   1.9620530  44.4246440  37.1499240
   1.8664130  43.4841170  36.9999640   2.8052510  44.6461510  36.7547310
   5.3583950  42.1687770  27.1132900   5.7513520  42.4859970  26.3001590
   5.7200800  41.2899650  27.2277420   3.6676120  40.9195080  38.3729760
   2.9774440  40.7267280  39.0075850   4.4108420  41.2029720  38.9054060
   5.9439090  44.7593520  31.2083680   5.2120210  45.2680330  31.5573780
   5.5463430  43.9423500  30.9072460   2.3816480  41.4347720  29.6136170
   2.3852540  40.9937670  28.7640710   3.2767600  41.7565050  29.7207990
   2.4436630  42.4359800  22.6042930   2.5649450  42.3946280  23.5528750
   2.0585140  43.2983950  22.4489660   6.4065000  40.2127200  30.6206620
   6.4237740  40.6635850  31.4648470   6.1580580  39.3132840  30.8340060
   9.8335750  37.6259380  36.4593000  10.1581520  36.8949040  36.9850980
   9.8692260  37.3073020  35.5573990   2.6824450  45.4949500  31.3601580
   3.0494580  45.0208070  32.1062920   2.4929510  46.3691070  31.7009920
   9.7593590  47.7384490  30.0679030  10.4792710  48.2339780  29.6775140
   9.5575410  47.0602380  29.4232900   5.2203530  39.1322450  24.2108420
   4.4068140  38.6335620  24.1353730   5.0265480  39.9720700  23.7944770
   5.1412390  47.8093550  35.9548030   5.0749700  46.8889220  35.7005620
   4.5117530  47.9068990  36.6692670   7.9351920  43.5042100  22.5070580
   8.8231540  43.8159330  22.3321920   7.9057010  42.6314350  22.1151160
   3.9312510  49.6765790  23.1858750   4.2728210  50.4208020  22.6902070
   3.1025220  49.9896910  23.5483580   5.0729120  50.6314120  35.7051830
   5.0873660  49.6995080  35.4870740   4.3654220  50.7173880  36.3441600
  10.2066190  44.8153940  21.9750440  10.1229910  45.2468160  21.1246880
  10.9260380  45.2752290  22.4077260  11.2840330  47.2721460  35.0520410
  10.5588520  47.8650240  34.8549800  11.8115790  47.2645000  34.2533780
  11.2353440  51.6696200  24.7032570  10.5929600  51.0151820  24.9776290
  10.8484100  52.0751290  23.9273240   6.8139920  48.9981630  28.5504260
   7.1663740  48.4009760  27.8905630   5.9302250  48.6725860  28.7212510
   2.9003200  49.7579320  25.9574670   3.5874330  50.3048530  26.3382260
   2.1135620  50.3020050  25.9924280   2.2030410  46.7625350  25.5700030
   2.6593190  47.5730600  25.7960220   1.8518620  46.4448490  26.4018520
   4.5063020  52.2731690  32.7992330   5.1505240  52.4791070  33.4765750
   4.8692460  51.5120090  32.3463180   5.7795100  50.2764040  31.5169780
   6.4217330  49.5757200  31.6301950   6.3044450  51.0562480  31.3366670
   9.6250820  50.5612660  21.2408920   9.3988400  49.8443100  21.8333560
   9.2347020  50.3125100  20.4030670   7.5532720  51.0758940  34.7205840
   7.8888960  51.6625630  35.3983760   6.6333060  50.9451650  34.9503630
   9.2067070  48.4784600  22.9023080   8.9188770  48.9397290  23.6900960
  10.0019240  48.0182370  23.1707300   3.3821300  51.1250270  37.8893900
   3.0618170  50.4059510  38.4339590   2.7079660  51.8005340  37.9629960
   6.5974900  41.3576430  33.2530700   6.9655720  40.5371640  33.5810270
   5.7373100  41.4178320  33.6686350   9.9636930  40.3133370  24.0618260
   9.3350090  40.4179040  23.3476490   9.4688850  40.5330150  24.8512140
   4.4095070  52.0338960  21.4952240   4.5107050  51.8302950  20.5654220
   3.5096810  51.7797240  21.7000020   3.5576890  44.0116020  33.4768670
   4.0562140  44.4861840  34.1420520   3.6999840  43.0879540  33.6838700
   5.9636390  39.3169980  26.9171930   5.8404170  39.3356110  25.9681440
   6.9120950  39.3648920  27.0370330   3.0513180  54.5525280  26.1899910
   3.3054680  54.5146670  25.2679280   2.1025660  54.4258610  26.1828160
  10.7643750  40.2283980  34.3197060  10.2617350  40.9689380  34.6590870
  11.5800410  40.6167980  34.0033850   9.0565760  45.4717160  27.7658420
   8.1155900  45.4867390  27.9406110   9.3709830  44.6853120  28.2118720
  11.0591340  52.6426010  29.4412680  11.1838760  53.4657180  29.9136490
  11.9256900  52.4316740  29.0936830   6.3731780  50.0283160  38.2490800
   5.7669940  50.0514760  37.5086550   6.0685890  49.2966200  38.7858050
   7.8032150  53.7563450  36.8600210   8.7553900  53.6721470  36.8100450
   7.6560370  54.4205160  37.5334000  10.6941350  53.1357660  22.3592120
  10.4082860  52.7222800  21.5446300  10.4960900  54.0645370  22.2392640
   2.1588580  49.1290940  20.7997730   2.0539220  48.5143290  21.5259110
   1.9912800  48.6056830  20.0160740   5.3991310  48.1910970  21.4039720
   4.8501410  48.6380270  22.0482460   6.0210570  47.6860220  21.9277390
   9.4526250  49.5453070  37.3361980  10.1935720  49.8828830  36.8329440
   8.6898930  49.7145130  36.7831750   3.5794070  46.1739500  20.5482120
   4.0999730  45.4588520  20.1823270   4.2262470  46.8125370  20.8482630
   8.1271910  47.5967900  35.8717190   8.5412930  47.7512980  36.7207610
   7.1922910  47.7223120  36.0342970   8.5994080  44.9364060  37.8756340
   9.1814850  44.1816380  37.7876820   8.7755850  45.4671500  37.0987820
   2.4827590  38.6534050  33.2200680   2.0344890  38.6758310  32.3746230
   1.8492790  38.2553070  33.8170980   2.8887140  47.5488380  33.8413120
   3.3075250  48.3921110  33.6689360   1.9695770  47.6860420  33.6119900
   5.2251040  45.2804560  35.2250960   5.3447250  44.6845700  35.9645800
   6.0845040  45.3174250  34.8052260   7.5638940  45.8341750  33.8013470
   7.0374160  46.3584370  33.1978610   7.9070280  46.4669140  34.4323200
   6.8113240  41.4391720  36.7159800   6.1228760  40.7773260  36.6509790
   7.5319260  40.9929990  37.1608260   7.4413640  38.0343350  22.7750060
   7.7215930  37.1911250  23.1309480   6.6679370  38.2666460  23.2888810
   3.5956770  55.0892600  35.2157500   3.5215470  55.9927740  35.5229870
   2.6935610  54.7704500  35.1879570   4.1442100  54.2551110  22.8383860
   5.0392890  54.5936080  22.8602620   4.1759730  53.5330520  22.2108140
  11.1236450  52.7854780  35.5450060  10.5238440  52.8447340  34.8013980
  11.2530350  51.8459760  35.6746910  12.3637900  50.5272600  20.8819770
  11.5330860  50.5949250  21.3527000  12.5409730  51.4176720  20.5786630
  11.8194360  47.2720080  23.3853970  12.5813270  47.8416730  23.4913660
  11.8348730  46.7047280  24.1562280  12.8254330  48.1270180  28.2295900
  13.1963160  47.3437500  27.8231870  13.4656260  48.8159280  28.0513200
   9.8088090  49.5106760  33.6426220   8.9947930  49.9403920  33.9052010
  10.2162290  50.1225170  33.0295270  11.8713530  47.5654450  20.5426490
  12.1462370  48.4733330  20.4145710  11.6824270  47.5016980  21.4788480
   8.2689140  40.5899300  21.8380120   8.6874020  40.4030280  20.9976780
   7.9625200  39.7378350  22.1483050  11.7678870  45.5023440  25.5355920
  11.3922470  44.7351370  25.1037210  11.0381990  45.8846140  26.0230850
  11.1578490  44.6494960  35.1695440  10.9264580  44.4207710  34.2693390
  11.4183040  45.5694510  35.1240330   9.5966560  39.8751390  37.9475140
  10.4736740  39.8834790  38.3309140   9.6087400  39.1382230  37.3367490
  11.0429830  43.7280930  28.8363160  11.5667310  43.2343580  28.2053330
  11.6289250  43.8631290  29.5810730  11.2219550  43.8120800  32.3582710
  10.2722260  43.7784340  32.4727700  11.4032560  44.7220910  32.1232480
  10.5329800  42.9854280  24.7755570  11.0288920  42.7525150  25.5604450
  10.3345870  42.1466120  24.3593210  11.9616960  41.6215230  27.3093250
  11.8516240  41.4671270  28.2475520  12.7224550  41.0936170  27.0668660
  10.3082680  37.5609360  33.7676250  10.9454900  38.1743500  34.1335440
  10.4557570  37.5970020  32.8225480  12.8507230  39.4523150  20.5499390
  13.7756540  39.3204330  20.3417680  12.8283020  39.5315970  21.5035840
  12.9245720  40.2233810  23.1756100  12.1297220  40.1578930  23.7049010
  13.1289000  41.1584450  23.1641450   9.8664140  54.2625360  27.1694490
  10.4623210  53.9409930  26.4928910  10.1242290  53.7897180  27.9607760
   3.6787160  38.7135550  36.6751350   3.6176050  39.3057380  37.4246760
   4.6187540  38.6061510  36.5301610   6.3161720  38.3705610  36.3143640
   6.9302130  38.6884900  35.6524720   6.8611280  37.8854200  36.9339500
  12.7336900  54.2697240  33.7205480  12.2395180  54.6666110  33.0032610
  12.1250190  53.6446450  34.1142760   7.0569760  36.9337750  32.6412930
   6.1829600  37.2672860  32.4385860   6.9480510  36.4610930  33.4664800
   7.9641740  39.1408620  34.0254650   7.6355100  38.3260380  33.6456380
   8.9124040  39.0978430  33.9020340  10.4176350  54.9120660  30.9992220
   9.9579320  55.6636470  30.6250240   9.7888810  54.1927130  30.9407020
   3.5867570  54.1117390  31.0009330   3.8745380  53.8571690  30.1242340
   4.0990790  53.5594750  31.5914900   4.8044580  37.8507590  31.5805840
   4.0216370  38.3253090  31.8602600   4.5107510  36.9462420  31.4719020
   9.3565650  38.5530690  29.6254930   9.7973740  38.4975790  28.7776530
   9.0873240  39.4688700  29.6965110  11.2204220  38.1845930  27.6363750
  11.1592620  37.2407150  27.4894770  11.9996250  38.2926020  28.1817210
   2.6898800  40.2694340  27.0921870   1.8773310  39.8951230  26.7517750
   3.1940440  39.5139420  27.3943060   7.1923780  36.9336790  28.3304940
   7.7953150  37.5057000  28.8053460   6.4516770  37.4976230  28.1078840
  10.3358380  37.3358350  23.6045220  10.5309010  38.2341800  23.8712650
   9.5488250  37.1045430  24.0978170   3.6539930  55.0333490  38.3677530
   4.5807240  54.7977760  38.4113490   3.6390360  55.8605490  37.8863560
  11.8884990  54.5759060  25.3651780  12.0637180  53.8896800  24.7212700
  11.1906560  55.1006110  24.9728450   7.4419000  37.1131820  38.7099880
   7.3284450  37.4326430  39.6051400   8.2588740  37.5144330  38.4137160
  10.2217490  54.2603350  38.1918570  11.0142810  53.7652580  37.9844530
  10.5150640  54.9393490  38.7994180   6.3477150  45.1324290   9.0734620
   6.2671200  44.2178900   8.8026330   5.9341570  45.6291360   8.3674330
   4.4795190  46.9103310  10.9543890   3.7037290  46.4303750  11.2442460
   5.1308120  46.2308960  10.7800050   8.5002620  51.3163500   9.7343020
   8.0384150  50.5450740  10.0630190   9.3128170  51.3429570  10.2395470
   4.7265930  53.6021510   9.3547010   4.1077370  54.0579010   8.7841450
   5.5817710  53.7572970   8.9536710   3.9204180  49.5860500  10.9614050
   3.8512460  48.6450440  10.8003180   4.6824040  49.6761910  11.5336620
   4.9509350  42.3930880  11.1882980   5.3274170  41.5202760  11.0756650
   4.8528860  42.7289580  10.2973420   8.7333470  39.8881320   8.1211320
   9.5543090  39.3977890   8.1636800   8.7667550  40.4778980   8.8743160
  13.0233020  41.9048070  14.6854950  12.3185190  42.2929780  14.1670060
  13.2890940  42.5998360  15.2875880   5.5929280  48.4860750   6.7478920
   4.9746550  48.9510200   6.1841640   6.1052530  49.1788230   7.1648430
   8.9694950  41.8281700  10.8938860   8.2650520  42.1166590  11.4741970
   9.3307110  42.6381810  10.5338420  10.5857730  51.4456830  13.1566340
   9.9021250  52.1155940  13.1483010  11.1252020  51.6437480  12.3911200
  12.0381870  41.2736490  11.2848070  11.0906780  41.3075470  11.4163500
  12.3631860  42.0875440  11.6697430   8.1216470  53.2900960  11.8711520
   8.1343630  52.8863250  11.0033780   7.5691690  54.0648250  11.7672950
   9.4161890  50.0117180   6.9601690   9.3058220  49.0691510   7.0851110
   9.4130140  50.3732820   7.8464450   7.5201910  48.1930800  13.1994130
   7.9370700  47.9790910  12.3647590   8.2441730  48.4503590  13.7702750
   4.9582170  45.6382500   6.3164180   4.0311450  45.5719880   6.5452650
   5.1106990  46.5762630   6.2019420   4.9451250  41.9099500   3.3131340
   4.0054920  42.0713460   3.3983800   5.2634510  42.6285180   2.7667330
  11.4664010  46.5918020  13.2910370  10.6382640  46.6611110  12.8160500
  12.0614490  47.1772330  12.8226200   8.9879460  47.2002800   6.8199430
   8.3691880  46.8622350   6.1725730   8.9703910  46.5562560   7.5278620
   8.4306020  43.3787340  14.2365240   8.0177200  44.2041050  14.4905230
   7.6981970  42.7932380  14.0441600   9.1206120  53.4246670  14.9246220
   8.6436680  54.2318860  14.7318830   8.4367910  52.7725000  15.0772430
   7.1644160  46.4389610   3.8272180   7.6037440  45.6012040   3.6810000
   7.8772580  47.0719010   3.9136320   5.2739540  51.3785680   7.7953420
   5.7135450  52.1210010   7.3808810   5.2126430  51.6212250   8.7192380
  10.7461300  37.6932420   2.1413220  10.4333960  37.7859250   3.0412290
  11.5073770  38.2713450   2.0910650  12.7005330  53.1858610  19.9937610
  13.1765050  53.6641500  20.6726690  13.3212490  53.1176100  19.2683110
  12.1038580  50.3771460  17.1537620  12.2301640  50.1383340  16.2354800
  12.1459960  49.5456000  17.6259700   5.9655320  54.0799460  15.7232430
   6.4799990  53.9907470  16.5254860   5.1224400  54.4259160  16.0160340
   7.9409720  54.3654800   5.1516430   7.7810860  54.0757740   6.0498260
   7.7756430  53.5894930   4.6161660   7.6435850  51.8742360   3.7114430
   6.9501010  51.8719650   3.0516710   8.3858710  51.4501680   3.2808600
   7.2085780  53.5005070   7.7862920   7.6642730  52.7194450   8.1001540
   7.5478300  54.2111890   8.3304100  11.9562590  42.4303920  18.1187360
  11.3406860  42.9383590  17.5902820  11.6359010  41.5302250  18.0613300
   4.0176910  41.2695810  15.5849550   3.5556280  41.4778830  16.3969490
   3.6155020  40.4555160  15.2820220   9.0181420  42.4904760  16.7146210
   8.1675010  42.1910510  17.0355280   8.8583210  42.7346770  15.8030030
   6.1131130  43.9906510  18.8145000   6.4384540  43.1570260  18.4747230
   6.9011460  44.5135030  18.9623330   2.8465920  38.0237990   4.8620060
   2.2220100  38.0197860   5.5873370   2.7596040  37.1568950   4.4656030
   1.7683000  38.9474620  11.8403830   2.0655330  39.8537450  11.7595850
   2.3168560  38.4593400  11.2263400   6.7519080  43.5324230   6.3086130
   6.1527970  44.2560030   6.1249750   7.2998690  43.4701010   5.5262580
   1.9620530  44.4246440  18.3755750   1.8664130  43.4841170  18.2256150
   2.8052510  44.6461510  17.9803820   5.3583950  42.1687770   8.3389410
   5.7513520  42.4859970   7.5258100   5.7200800  41.2899650   8.4533930
   3.6676120  40.9195080  19.5986270   2.9774440  40.7267280  20.2332360
   4.4108420  41.2029720  20.1310570   5.9439090  44.7593520  12.4340190
   5.2120210  45.2680330  12.7830290   5.5463430  43.9423500  12.1328970
   2.3816480  41.4347720  10.8392680   2.3852540  40.9937670   9.9897220
   3.2767600  41.7565050  10.9464500   2.4436630  42.4359800   3.8299440
   2.5649450  42.3946280   4.7785260   2.0585140  43.2983950   3.6746170
   6.4065000  40.2127200  11.8463130   6.4237740  40.6635850  12.6904980
   6.1580580  39.3132840  12.0596570   9.8335750  37.6259380  17.6849510
  10.1581520  36.8949040  18.2107490   9.8692260  37.3073020  16.7830500
   2.6824450  45.4949500  12.5858090   3.0494580  45.0208070  13.3319430
   2.4929510  46.3691070  12.9266430   9.7593590  47.7384490  11.2935540
  10.4792710  48.2339780  10.9031650   9.5575410  47.0602380  10.6489410
   5.2203530  39.1322450   5.4364930   4.4068140  38.6335620   5.3610240
   5.0265480  39.9720700   5.0201280   5.1412390  47.8093550  17.1804540
   5.0749700  46.8889220  16.9262130   4.5117530  47.9068990  17.8949180
   7.9351920  43.5042100   3.7327090   8.8231540  43.8159330   3.5578430
   7.9057010  42.6314350   3.3407670   3.9312510  49.6765790   4.4115260
   4.2728210  50.4208020   3.9158580   3.1025220  49.9896910   4.7740090
   5.0729120  50.6314120  16.9308340   5.0873660  49.6995080  16.7127250
   4.3654220  50.7173880  17.5698110  10.2066190  44.8153940   3.2006950
  10.1229910  45.2468160   2.3503390  10.9260380  45.2752290   3.6333770
  11.2840330  47.2721460  16.2776920  10.5588520  47.8650240  16.0806310
  11.8115790  47.2645000  15.4790290  11.2353440  51.6696200   5.9289080
  10.5929600  51.0151820   6.2032800  10.8484100  52.0751290   5.1529750
   6.8139920  48.9981630   9.7760770   7.1663740  48.4009760   9.1162140
   5.9302250  48.6725860   9.9469020   2.9003200  49.7579320   7.1831180
   3.5874330  50.3048530   7.5638770   2.1135620  50.3020050   7.2180790
   2.2030410  46.7625350   6.7956540   2.6593190  47.5730600   7.0216730
   1.8518620  46.4448490   7.6275030   4.5063020  52.2731690  14.0248840
   5.1505240  52.4791070  14.7022260   4.8692460  51.5120090  13.5719690
   5.7795100  50.2764040  12.7426290   6.4217330  49.5757200  12.8558460
   6.3044450  51.0562480  12.5623180   9.6250820  50.5612660   2.4665430
   9.3988400  49.8443100   3.0590070   9.2347020  50.3125100   1.6287180
   7.5532720  51.0758940  15.9462350   7.8888960  51.6625630  16.6240270
   6.6333060  50.9451650  16.1760140   9.2067070  48.4784600   4.1279590
   8.9188770  48.9397290   4.9157470  10.0019240  48.0182370   4.3963810
   3.3821300  51.1250270  19.1150410   3.0618170  50.4059510  19.6596100
   2.7079660  51.8005340  19.1886470   6.5974900  41.3576430  14.4787210
   6.9655720  40.5371640  14.8066780   5.7373100  41.4178320  14.8942860
   9.9636930  40.3133370   5.2874770   9.3350090  40.4179040   4.5733000
   9.4688850  40.5330150   6.0768650   4.4095070  52.0338960   2.7208750
   4.5107050  51.8302950   1.7910730   3.5096810  51.7797240   2.9256530
   3.5576890  44.0116020  14.7025180   4.0562140  44.4861840  15.3677030
   3.6999840  43.0879540  14.9095210   5.9636390  39.3169980   8.1428440
   5.8404170  39.3356110   7.1937950   6.9120950  39.3648920   8.2626840
   3.0513180  54.5525280   7.4156420   3.3054680  54.5146670   6.4935790
   2.1025660  54.4258610   7.4084670  10.7643750  40.2283980  15.5453570
  10.2617350  40.9689380  15.8847380  11.5800410  40.6167980  15.2290360
   9.0565760  45.4717160   8.9914930   8.1155900  45.4867390   9.1662620
   9.3709830  44.6853120   9.4375230  11.0591340  52.6426010  10.6669190
  11.1838760  53.4657180  11.1393000  11.9256900  52.4316740  10.3193340
   6.3731780  50.0283160  19.4747310   5.7669940  50.0514760  18.7343060
   6.0685890  49.2966200  20.0114560   7.8032150  53.7563450  18.0856720
   8.7553900  53.6721470  18.0356960   7.6560370  54.4205160  18.7590510
  10.6941350  53.1357660   3.5848630  10.4082860  52.7222800   2.7702810
  10.4960900  54.0645370   3.4649150   5.3991310  48.1910970   2.6296230
   4.8501410  48.6380270   3.2738970   6.0210570  47.6860220   3.1533900
   9.4526250  49.5453070  18.5618490  10.1935720  49.8828830  18.0585950
   8.6898930  49.7145130  18.0088260   8.1271910  47.5967900  17.0973700
   8.5412930  47.7512980  17.9464120   7.1922910  47.7223120  17.2599480
   8.5994080  44.9364060  19.1012850   9.1814850  44.1816380  19.0133330
   8.7755850  45.4671500  18.3244330   2.4827590  38.6534050  14.4457190
   2.0344890  38.6758310  13.6002740   1.8492790  38.2553070  15.0427490
   2.8887140  47.5488380  15.0669630   3.3075250  48.3921110  14.8945870
   1.9695770  47.6860420  14.8376410   5.2251040  45.2804560  16.4507470
   5.3447250  44.6845700  17.1902310   6.0845040  45.3174250  16.0308770
   7.5638940  45.8341750  15.0269980   7.0374160  46.3584370  14.4235120
   7.9070280  46.4669140  15.6579710   6.8113240  41.4391720  17.9416310
   6.1228760  40.7773260  17.8766300   7.5319260  40.9929990  18.3864770
   7.4413640  38.0343350   4.0006570   7.7215930  37.1911250   4.3565990
   6.6679370  38.2666460   4.5145320   3.5956770  55.0892600  16.4414010
   3.5215470  55.9927740  16.7486380   2.6935610  54.7704500  16.4136080
   4.1442100  54.2551110   4.0640370   5.0392890  54.5936080   4.0859130
   4.1759730  53.5330520   3.4364650  11.1236450  52.7854780  16.7706570
  10.5238440  52.8447340  16.0270490  11.2530350  51.8459760  16.9003420
  12.3637900  50.5272600   2.1076280  11.5330860  50.5949250   2.5783510
  12.5409730  51.4176720   1.8043140  11.8194360  47.2720080   4.6110480
  12.5813270  47.8416730   4.7170170  11.8348730  46.7047280   5.3818790
  12.8254330  48.1270180   9.4552410  13.1963160  47.3437500   9.0488380
  13.4656260  48.8159280   9.2769710   9.8088090  49.5106760  14.8682730
   8.9947930  49.9403920  15.1308520  10.2162290  50.1225170  14.2551780
  11.8713530  47.5654450   1.7683000  12.1462370  48.4733330   1.6402220
  11.6824270  47.5016980   2.7044990   8.2689140  40.5899300   3.0636630
   8.6874020  40.4030280   2.2233290   7.9625200  39.7378350   3.3739560
  11.7678870  45.5023440   6.7612430  11.3922470  44.7351370   6.3293720
  11.0381990  45.8846140   7.2487360  11.1578490  44.6494960  16.3951950
  10.9264580  44.4207710  15.4949900  11.4183040  45.5694510  16.3496840
   9.5966560  39.8751390  19.1731650  10.4736740  39.8834790  19.5565650
   9.6087400  39.1382230  18.5624000  11.0429830  43.7280930  10.0619670
  11.5667310  43.2343580   9.4309840  11.6289250  43.8631290  10.8067240
  11.2219550  43.8120800  13.5839220  10.2722260  43.7784340  13.6984210
  11.4032560  44.7220910  13.3488990  10.5329800  42.9854280   6.0012080
  11.0288920  42.7525150   6.7860960  10.3345870  42.1466120   5.5849720
  11.9616960  41.6215230   8.5349760  11.8516240  41.4671270   9.4732030
  12.7224550  41.0936170   8.2925170  10.3082680  37.5609360  14.9932760
  10.9454900  38.1743500  15.3591950  10.4557570  37.5970020  14.0481990
  12.8507230  39.4523150   1.7755900  13.7756540  39.3204330   1.5674190
  12.8283020  39.5315970   2.7292350  12.9245720  40.2233810   4.4012610
  12.1297220  40.1578930   4.9305520  13.1289000  41.1584450   4.3897960
   9.8664140  54.2625360   8.3951000  10.4623210  53.9409930   7.7185420
  10.1242290  53.7897180   9.1864270   3.6787160  38.7135550  17.9007860
   3.6176050  39.3057380  18.6503270   4.6187540  38.6061510  17.7558120
   6.3161720  38.3705610  17.5400150   6.9302130  38.6884900  16.8781230
   6.8611280  37.8854200  18.1596010  12.7336900  54.2697240  14.9461990
  12.2395180  54.6666110  14.2289120  12.1250190  53.6446450  15.3399270
   7.0569760  36.9337750  13.8669440   6.1829600  37.2672860  13.6642370
   6.9480510  36.4610930  14.6921310   7.9641740  39.1408620  15.2511160
   7.6355100  38.3260380  14.8712890   8.9124040  39.0978430  15.1276850
  10.4176350  54.9120660  12.2248730   9.9579320  55.6636470  11.8506750
   9.7888810  54.1927130  12.1663530   3.5867570  54.1117390  12.2265840
   3.8745380  53.8571690  11.3498850   4.0990790  53.5594750  12.8171410
   4.8044580  37.8507590  12.8062350   4.0216370  38.3253090  13.0859110
   4.5107510  36.9462420  12.6975530   9.3565650  38.5530690  10.8511440
   9.7973740  38.4975790  10.0033040   9.0873240  39.4688700  10.9221620
  11.2204220  38.1845930   8.8620260  11.1592620  37.2407150   8.7151280
  11.9996250  38.2926020   9.4073720   2.6898800  40.2694340   8.3178380
   1.8773310  39.8951230   7.9774260   3.1940440  39.5139420   8.6199570
   7.1923780  36.9336790   9.5561450   7.7953150  37.5057000  10.0309970
   6.4516770  37.4976230   9.3335350  10.3358380  37.3358350   4.8301730
  10.5309010  38.2341800   5.0969160   9.5488250  37.1045430   5.3234680
   3.6539930  55.0333490  19.5934040   4.5807240  54.7977760  19.6370000
   3.6390360  55.8605490  19.1120070  11.8884990  54.5759060   6.5908290
  12.0637180  53.8896800   5.9469210  11.1906560  55.1006110   6.1984960
   7.4419000  37.1131820  19.9356390   7.3284450  37.4326430  20.8307910
   8.2588740  37.5144330  19.6393670  10.2217490  54.2603350  19.4175080
  11.0142810  53.7652580  19.2101040  10.5150640  54.9393490  20.0250690
   6.3477150  26.3580800  65.3965090   6.2671200  25.4435410  65.1256800
   5.9341570  26.8547870  64.6904800   4.4795190  28.1359820  67.2774360
   3.7037290  27.6560260  67.5672930   5.1308120  27.4565470  67.1030520
   8.5002620  32.5420010  66.0573490   8.0384150  31.7707250  66.3860660
   9.3128170  32.5686080  66.5625940   4.7265930  34.8278020  65.6777480
   4.1077370  35.2835520  65.1071920   5.5817710  34.9829480  65.2767180
   3.9204180  30.8117010  67.2844520   3.8512460  29.8706950  67.1233650
   4.6824040  30.9018420  67.8567090   4.9509350  23.6187390  67.5113450
   5.3274170  22.7459270  67.3987120   4.8528860  23.9546090  66.6203890
   8.7333470  21.1137830  64.4441790   9.5543090  20.6234400  64.4867270
   8.7667550  21.7035490  65.1973630  13.0233020  23.1304580  71.0085420
  12.3185190  23.5186290  70.4900530  13.2890940  23.8254870  71.6106350
   5.5929280  29.7117260  63.0709390   4.9746550  30.1766710  62.5072110
   6.1052530  30.4044740  63.4878900   8.9694950  23.0538210  67.2169330
   8.2650520  23.3423100  67.7972440   9.3307110  23.8638320  66.8568890
  10.5857730  32.6713340  69.4796810   9.9021250  33.3412450  69.4713480
  11.1252020  32.8693990  68.7141670  12.0381870  22.4993000  67.6078540
  11.0906780  22.5331980  67.7393970  12.3631860  23.3131950  67.9927900
   8.1216470  34.5157470  68.1941990   8.1343630  34.1119760  67.3264250
   7.5691690  35.2904760  68.0903420   9.4161890  31.2373690  63.2832160
   9.3058220  30.2948020  63.4081580   9.4130140  31.5989330  64.1694920
   7.5201910  29.4187310  69.5224600   7.9370700  29.2047420  68.6878060
   8.2441730  29.6760100  70.0933220   4.9582170  26.8639010  62.6394650
   4.0311450  26.7976390  62.8683120   5.1106990  27.8019140  62.5249890
   4.9451250  23.1356010  59.6361810   4.0054920  23.2969970  59.7214270
   5.2634510  23.8541690  59.0897800  11.4664010  27.8174530  69.6140840
  10.6382640  27.8867620  69.1390970  12.0614490  28.4028840  69.1456670
   8.9879460  28.4259310  63.1429900   8.3691880  28.0878860  62.4956200
   8.9703910  27.7819070  63.8509090   8.4306020  24.6043850  70.5595710
   8.0177200  25.4297560  70.8135700   7.6981970  24.0188890  70.3672070
   9.1206120  34.6503180  71.2476690   8.6436680  35.4575370  71.0549300
   8.4367910  33.9981510  71.4002900   7.1644160  27.6646120  60.1502650
   7.6037440  26.8268550  60.0040470   7.8772580  28.2975520  60.2366790
   5.2739540  32.6042190  64.1183890   5.7135450  33.3466520  63.7039280
   5.2126430  32.8468760  65.0422850  10.7461300  18.9188930  58.4643690
  10.4333960  19.0115760  59.3642760  11.5073770  19.4969960  58.4141120
  12.1038580  31.6027970  73.4768090  12.2301640  31.3639850  72.5585270
  12.1459960  30.7712510  73.9490170   5.9655320  35.3055970  72.0462900
   6.4799990  35.2163980  72.8485330   5.1224400  35.6515670  72.3390810
   7.9409720  35.5911310  61.4746900   7.7810860  35.3014250  62.3728730
   7.7756430  34.8151440  60.9392130   7.6435850  33.0998870  60.0344900
   6.9501010  33.0976160  59.3747180   8.3858710  32.6758190  59.6039070
   7.2085780  34.7261580  64.1093390   7.6642730  33.9450960  64.4232010
   7.5478300  35.4368400  64.6534570  11.9562590  23.6560430  74.4417830
  11.3406860  24.1640100  73.9133290  11.6359010  22.7558760  74.3843770
   4.0176910  22.4952320  71.9080020   3.5556280  22.7035340  72.7199960
   3.6155020  21.6811670  71.6050690   9.0181420  23.7161270  73.0376680
   8.1675010  23.4167020  73.3585750   8.8583210  23.9603280  72.1260500
   6.1131130  25.2163020  75.1375470   6.4384540  24.3826770  74.7977700
   6.9011460  25.7391540  75.2853800   2.8465920  19.2494500  61.1850530
   2.2220100  19.2454370  61.9103840   2.7596040  18.3825460  60.7886500
   1.7683000  20.1731130  68.1634300   2.0655330  21.0793960  68.0826320
   2.3168560  19.6849910  67.5493870   6.7519080  24.7580740  62.6316600
   6.1527970  25.4816540  62.4480220   7.2998690  24.6957520  61.8493050
   1.9620530  25.6502950  74.6986220   1.8664130  24.7097680  74.5486620
   2.8052510  25.8718020  74.3034290   5.3583950  23.3944280  64.6619880
   5.7513520  23.7116480  63.8488570   5.7200800  22.5156160  64.7764400
   5.9439090  25.9850030  68.7570660   5.2120210  26.4936840  69.1060760
   5.5463430  25.1680010  68.4559440   2.3816480  22.6604230  67.1623150
   2.3852540  22.2194180  66.3127690   3.2767600  22.9821560  67.2694970
   2.4436630  23.6616310  60.1529910   2.5649450  23.6202790  61.1015730
   2.0585140  24.5240460  59.9976640   6.4065000  21.4383710  68.1693600
   6.4237740  21.8892360  69.0135450   6.1580580  20.5389350  68.3827040
   9.8335750  18.8515890  74.0079980  10.1581520  18.1205550  74.5337960
   9.8692260  18.5329530  73.1060970   2.6824450  26.7206010  68.9088560
   3.0494580  26.2464580  69.6549900   2.4929510  27.5947580  69.2496900
   9.7593590  28.9641000  67.6166010  10.4792710  29.4596290  67.2262120
   9.5575410  28.2858890  66.9719880   5.2203530  20.3578960  61.7595400
   4.4068140  19.8592130  61.6840710   5.0265480  21.1977210  61.3431750
   5.1412390  29.0350060  73.5035010   5.0749700  28.1145730  73.2492600
   4.5117530  29.1325500  74.2179650   7.9351920  24.7298610  60.0557560
   8.8231540  25.0415840  59.8808900   7.9057010  23.8570860  59.6638140
   3.9312510  30.9022300  60.7345730   4.2728210  31.6464530  60.2389050
   3.1025220  31.2153420  61.0970560   5.0729120  31.8570630  73.2538810
   5.0873660  30.9251590  73.0357720   4.3654220  31.9430390  73.8928580
  10.2066190  26.0410450  59.5237420  10.1229910  26.4724670  58.6733860
  10.9260380  26.5008800  59.9564240  11.2840330  28.4977970  72.6007390
  10.5588520  29.0906750  72.4036780  11.8115790  28.4901510  71.8020760
  11.2353440  32.8952710  62.2519550  10.5929600  32.2408330  62.5263270
  10.8484100  33.3007800  61.4760220   6.8139920  30.2238140  66.0991240
   7.1663740  29.6266270  65.4392610   5.9302250  29.8982370  66.2699490
   2.9003200  30.9835830  63.5061650   3.5874330  31.5305040  63.8869240
   2.1135620  31.5276560  63.5411260   2.2030410  27.9881860  63.1187010
   2.6593190  28.7987110  63.3447200   1.8518620  27.6705000  63.9505500
   4.5063020  33.4988200  70.3479310   5.1505240  33.7047580  71.0252730
   4.8692460  32.7376600  69.8950160   5.7795100  31.5020550  69.0656760
   6.4217330  30.8013710  69.1788930   6.3044450  32.2818990  68.8853650
   9.6250820  31.7869170  58.7895900   9.3988400  31.0699610  59.3820540
   9.2347020  31.5381610  57.9517650   7.5532720  32.3015450  72.2692820
   7.8888960  32.8882140  72.9470740   6.6333060  32.1708160  72.4990610
   9.2067070  29.7041110  60.4510060   8.9188770  30.1653800  61.2387940
  10.0019240  29.2438880  60.7194280   3.3821300  32.3506780  75.4380880
   3.0618170  31.6316020  75.9826570   2.7079660  33.0261850  75.5116940
   6.5974900  22.5832940  70.8017680   6.9655720  21.7628150  71.1297250
   5.7373100  22.6434830  71.2173330   9.9636930  21.5389880  61.6105240
   9.3350090  21.6435550  60.8963470   9.4688850  21.7586660  62.3999120
   4.4095070  33.2595470  59.0439220   4.5107050  33.0559460  58.1141200
   3.5096810  33.0053750  59.2487000   3.5576890  25.2372530  71.0255650
   4.0562140  25.7118350  71.6907500   3.6999840  24.3136050  71.2325680
   5.9636390  20.5426490  64.4658910   5.8404170  20.5612620  63.5168420
   6.9120950  20.5905430  64.5857310   3.0513180  35.7781790  63.7386890
   3.3054680  35.7403180  62.8166260   2.1025660  35.6515120  63.7315140
  10.7643750  21.4540490  71.8684040  10.2617350  22.1945890  72.2077850
  11.5800410  21.8424490  71.5520830   9.0565760  26.6973670  65.3145400
   8.1155900  26.7123900  65.4893090   9.3709830  25.9109630  65.7605700
  11.0591340  33.8682520  66.9899660  11.1838760  34.6913690  67.4623470
  11.9256900  33.6573250  66.6423810   7.8032150  34.9819960  74.4087190
   8.7553900  34.8977980  74.3587430   7.6560370  35.6461670  75.0820980
  10.6941350  34.3614170  59.9079100  10.4082860  33.9479310  59.0933280
  10.4960900  35.2901880  59.7879620   2.1588580  30.3547450  58.3484710
   2.0539220  29.7399800  59.0746090   1.9912800  29.8313340  57.5647720
   5.3991310  29.4167480  58.9526700   4.8501410  29.8636780  59.5969440
   6.0210570  28.9116730  59.4764370   9.4526250  30.7709580  74.8848960
  10.1935720  31.1085340  74.3816420   8.6898930  30.9401640  74.3318730
   3.5794070  27.3996010  58.0969100   4.0999730  26.6845030  57.7310250
   4.2262470  28.0381880  58.3969610   8.1271910  28.8224410  73.4204170
   8.5412930  28.9769490  74.2694590   7.1922910  28.9479630  73.5829950
   8.5994080  26.1620570  75.4243320   9.1814850  25.4072890  75.3363800
   8.7755850  26.6928010  74.6474800   2.4827590  19.8790560  70.7687660
   2.0344890  19.9014820  69.9233210   1.8492790  19.4809580  71.3657960
   2.8887140  28.7744890  71.3900100   3.3075250  29.6177620  71.2176340
   1.9695770  28.9116930  71.1606880   5.2251040  26.5061070  72.7737940
   5.3447250  25.9102210  73.5132780   6.0845040  26.5430760  72.3539240
   7.5638940  27.0598260  71.3500450   7.0374160  27.5840880  70.7465590
   7.9070280  27.6925650  71.9810180   6.8113240  22.6648230  74.2646780
   6.1228760  22.0029770  74.1996770   7.5319260  22.2186500  74.7095240
   7.4413640  19.2599860  60.3237040   7.7215930  18.4167760  60.6796460
   6.6679370  19.4922970  60.8375790   3.5956770  36.3149110  72.7644480
   3.5215470  37.2184250  73.0716850   2.6935610  35.9961010  72.7366550
   4.1442100  35.4807620  60.3870840   5.0392890  35.8192590  60.4089600
   4.1759730  34.7587030  59.7595120  11.1236450  34.0111290  73.0937040
  10.5238440  34.0703850  72.3500960  11.2530350  33.0716270  73.2233890
  12.3637900  31.7529110  58.4306750  11.5330860  31.8205760  58.9013980
  12.5409730  32.6433230  58.1273610  11.8194360  28.4976590  60.9340950
  12.5813270  29.0673240  61.0400640  11.8348730  27.9303790  61.7049260
  12.8254330  29.3526690  65.7782880  13.1963160  28.5694010  65.3718850
  13.4656260  30.0415790  65.6000180   9.8088090  30.7363270  71.1913200
   8.9947930  31.1660430  71.4538990  10.2162290  31.3481680  70.5782250
  11.8713530  28.7910960  58.0913470  12.1462370  29.6989840  57.9632690
  11.6824270  28.7273490  59.0275460   8.2689140  21.8155810  59.3867100
   8.6874020  21.6286790  58.5463760   7.9625200  20.9634860  59.6970030
  11.7678870  26.7279950  63.0842900  11.3922470  25.9607880  62.6524190
  11.0381990  27.1102650  63.5717830  11.1578490  25.8751470  72.7182420
  10.9264580  25.6464220  71.8180370  11.4183040  26.7951020  72.6727310
   9.5966560  21.1007900  75.4962120  10.4736740  21.1091300  75.8796120
   9.6087400  20.3638740  74.8854470  11.0429830  24.9537440  66.3850140
  11.5667310  24.4600090  65.7540310  11.6289250  25.0887800  67.1297710
  11.2219550  25.0377310  69.9069690  10.2722260  25.0040850  70.0214680
  11.4032560  25.9477420  69.6719460  10.5329800  24.2110790  62.3242550
  11.0288920  23.9781660  63.1091430  10.3345870  23.3722630  61.9080190
  11.9616960  22.8471740  64.8580230  11.8516240  22.6927780  65.7962500
  12.7224550  22.3192680  64.6155640  10.3082680  18.7865870  71.3163230
  10.9454900  19.4000010  71.6822420  10.4557570  18.8226530  70.3712460
  12.8507230  20.6779660  58.0986370  13.7756540  20.5460840  57.8904660
  12.8283020  20.7572480  59.0522820  12.9245720  21.4490320  60.7243080
  12.1297220  21.3835440  61.2535990  13.1289000  22.3840960  60.7128430
   9.8664140  35.4881870  64.7181470  10.4623210  35.1666440  64.0415890
  10.1242290  35.0153690  65.5094740   3.6787160  19.9392060  74.2238330
   3.6176050  20.5313890  74.9733740   4.6187540  19.8318020  74.0788590
   6.3161720  19.5962120  73.8630620   6.9302130  19.9141410  73.2011700
   6.8611280  19.1110710  74.4826480  12.7336900  35.4953750  71.2692460
  12.2395180  35.8922620  70.5519590  12.1250190  34.8702960  71.6629740
   7.0569760  18.1594260  70.1899910   6.1829600  18.4929370  69.9872840
   6.9480510  17.6867440  71.0151780   7.9641740  20.3665130  71.5741630
   7.6355100  19.5516890  71.1943360   8.9124040  20.3234940  71.4507320
  10.4176350  36.1377170  68.5479200   9.9579320  36.8892980  68.1737220
   9.7888810  35.4183640  68.4894000   3.5867570  35.3373900  68.5496310
   3.8745380  35.0828200  67.6729320   4.0990790  34.7851260  69.1401880
   4.8044580  19.0764100  69.1292820   4.0216370  19.5509600  69.4089580
   4.5107510  18.1718930  69.0206000   9.3565650  19.7787200  67.1741910
   9.7973740  19.7232300  66.3263510   9.0873240  20.6945210  67.2452090
  11.2204220  19.4102440  65.1850730  11.1592620  18.4663660  65.0381750
  11.9996250  19.5182530  65.7304190   2.6898800  21.4950850  64.6408850
   1.8773310  21.1207740  64.3004730   3.1940440  20.7395930  64.9430040
   7.1923780  18.1593300  65.8791920   7.7953150  18.7313510  66.3540440
   6.4516770  18.7232740  65.6565820  10.3358380  18.5614860  61.1532200
  10.5309010  19.4598310  61.4199630   9.5488250  18.3301940  61.6465150
   3.6539930  36.2590000  75.9164510   4.5807240  36.0234270  75.9600470
   3.6390360  37.0862000  75.4350540  11.8884990  35.8015570  62.9138760
  12.0637180  35.1153310  62.2699680  11.1906560  36.3262620  62.5215430
   6.3477150  26.3580800  46.6221600   6.2671200  25.4435410  46.3513310
   5.9341570  26.8547870  45.9161310   4.4795190  28.1359820  48.5030870
   3.7037290  27.6560260  48.7929440   5.1308120  27.4565470  48.3287030
   8.5002620  32.5420010  47.2830000   8.0384150  31.7707250  47.6117170
   9.3128170  32.5686080  47.7882450   4.7265930  34.8278020  46.9033990
   4.1077370  35.2835520  46.3328430   5.5817710  34.9829480  46.5023690
   3.9204180  30.8117010  48.5101030   3.8512460  29.8706950  48.3490160
   4.6824040  30.9018420  49.0823600   4.9509350  23.6187390  48.7369960
   5.3274170  22.7459270  48.6243630   4.8528860  23.9546090  47.8460400
   8.7333470  21.1137830  45.6698300   9.5543090  20.6234400  45.7123780
   8.7667550  21.7035490  46.4230140  13.0233020  23.1304580  52.2341930
  12.3185190  23.5186290  51.7157040  13.2890940  23.8254870  52.8362860
   5.5929280  29.7117260  44.2965900   4.9746550  30.1766710  43.7328620
   6.1052530  30.4044740  44.7135410   8.9694950  23.0538210  48.4425840
   8.2650520  23.3423100  49.0228950   9.3307110  23.8638320  48.0825400
  10.5857730  32.6713340  50.7053320   9.9021250  33.3412450  50.6969990
  11.1252020  32.8693990  49.9398180  12.0381870  22.4993000  48.8335050
  11.0906780  22.5331980  48.9650480  12.3631860  23.3131950  49.2184410
   8.1216470  34.5157470  49.4198500   8.1343630  34.1119760  48.5520760
   7.5691690  35.2904760  49.3159930   9.4161890  31.2373690  44.5088670
   9.3058220  30.2948020  44.6338090   9.4130140  31.5989330  45.3951430
   7.5201910  29.4187310  50.7481110   7.9370700  29.2047420  49.9134570
   8.2441730  29.6760100  51.3189730   4.9582170  26.8639010  43.8651160
   4.0311450  26.7976390  44.0939630   5.1106990  27.8019140  43.7506400
   4.9451250  23.1356010  40.8618320   4.0054920  23.2969970  40.9470780
   5.2634510  23.8541690  40.3154310  11.4664010  27.8174530  50.8397350
  10.6382640  27.8867620  50.3647480  12.0614490  28.4028840  50.3713180
   8.9879460  28.4259310  44.3686410   8.3691880  28.0878860  43.7212710
   8.9703910  27.7819070  45.0765600   8.4306020  24.6043850  51.7852220
   8.0177200  25.4297560  52.0392210   7.6981970  24.0188890  51.5928580
   9.1206120  34.6503180  52.4733200   8.6436680  35.4575370  52.2805810
   8.4367910  33.9981510  52.6259410   7.1644160  27.6646120  41.3759160
   7.6037440  26.8268550  41.2296980   7.8772580  28.2975520  41.4623300
   5.2739540  32.6042190  45.3440400   5.7135450  33.3466520  44.9295790
   5.2126430  32.8468760  46.2679360  10.7461300  18.9188930  39.6900200
  10.4333960  19.0115760  40.5899270  11.5073770  19.4969960  39.6397630
  12.7005330  34.4115120  57.5424590  13.1765050  34.8898010  58.2213670
  13.3212490  34.3432610  56.8170090  12.1038580  31.6027970  54.7024600
  12.2301640  31.3639850  53.7841780  12.1459960  30.7712510  55.1746680
   5.9655320  35.3055970  53.2719410   6.4799990  35.2163980  54.0741840
   5.1224400  35.6515670  53.5647320   7.9409720  35.5911310  42.7003410
   7.7810860  35.3014250  43.5985240   7.7756430  34.8151440  42.1648640
   7.6435850  33.0998870  41.2601410   6.9501010  33.0976160  40.6003690
   8.3858710  32.6758190  40.8295580   7.2085780  34.7261580  45.3349900
   7.6642730  33.9450960  45.6488520   7.5478300  35.4368400  45.8791080
  11.9562590  23.6560430  55.6674340  11.3406860  24.1640100  55.1389800
  11.6359010  22.7558760  55.6100280   4.0176910  22.4952320  53.1336530
   3.5556280  22.7035340  53.9456470   3.6155020  21.6811670  52.8307200
   9.0181420  23.7161270  54.2633190   8.1675010  23.4167020  54.5842260
   8.8583210  23.9603280  53.3517010   6.1131130  25.2163020  56.3631980
   6.4384540  24.3826770  56.0234210   6.9011460  25.7391540  56.5110310
   2.8465920  19.2494500  42.4107040   2.2220100  19.2454370  43.1360350
   2.7596040  18.3825460  42.0143010   1.7683000  20.1731130  49.3890810
   2.0655330  21.0793960  49.3082830   2.3168560  19.6849910  48.7750380
   6.7519080  24.7580740  43.8573110   6.1527970  25.4816540  43.6736730
   7.2998690  24.6957520  43.0749560   1.9620530  25.6502950  55.9242730
   1.8664130  24.7097680  55.7743130   2.8052510  25.8718020  55.5290800
   5.3583950  23.3944280  45.8876390   5.7513520  23.7116480  45.0745080
   5.7200800  22.5156160  46.0020910   3.6676120  22.1451590  57.1473250
   2.9774440  21.9523790  57.7819340   4.4108420  22.4286230  57.6797550
   5.9439090  25.9850030  49.9827170   5.2120210  26.4936840  50.3317270
   5.5463430  25.1680010  49.6815950   2.3816480  22.6604230  48.3879660
   2.3852540  22.2194180  47.5384200   3.2767600  22.9821560  48.4951480
   2.4436630  23.6616310  41.3786420   2.5649450  23.6202790  42.3272240
   2.0585140  24.5240460  41.2233150   6.4065000  21.4383710  49.3950110
   6.4237740  21.8892360  50.2391960   6.1580580  20.5389350  49.6083550
   9.8335750  18.8515890  55.2336490  10.1581520  18.1205550  55.7594470
   9.8692260  18.5329530  54.3317480   2.6824450  26.7206010  50.1345070
   3.0494580  26.2464580  50.8806410   2.4929510  27.5947580  50.4753410
   9.7593590  28.9641000  48.8422520  10.4792710  29.4596290  48.4518630
   9.5575410  28.2858890  48.1976390   5.2203530  20.3578960  42.9851910
   4.4068140  19.8592130  42.9097220   5.0265480  21.1977210  42.5688260
   5.1412390  29.0350060  54.7291520   5.0749700  28.1145730  54.4749110
   4.5117530  29.1325500  55.4436160   7.9351920  24.7298610  41.2814070
   8.8231540  25.0415840  41.1065410   7.9057010  23.8570860  40.8894650
   3.9312510  30.9022300  41.9602240   4.2728210  31.6464530  41.4645560
   3.1025220  31.2153420  42.3227070   5.0729120  31.8570630  54.4795320
   5.0873660  30.9251590  54.2614230   4.3654220  31.9430390  55.1185090
  10.2066190  26.0410450  40.7493930  10.1229910  26.4724670  39.8990370
  10.9260380  26.5008800  41.1820750  11.2840330  28.4977970  53.8263900
  10.5588520  29.0906750  53.6293290  11.8115790  28.4901510  53.0277270
  11.2353440  32.8952710  43.4776060  10.5929600  32.2408330  43.7519780
  10.8484100  33.3007800  42.7016730   6.8139920  30.2238140  47.3247750
   7.1663740  29.6266270  46.6649120   5.9302250  29.8982370  47.4956000
   2.9003200  30.9835830  44.7318160   3.5874330  31.5305040  45.1125750
   2.1135620  31.5276560  44.7667770   2.2030410  27.9881860  44.3443520
   2.6593190  28.7987110  44.5703710   1.8518620  27.6705000  45.1762010
   4.5063020  33.4988200  51.5735820   5.1505240  33.7047580  52.2509240
   4.8692460  32.7376600  51.1206670   5.7795100  31.5020550  50.2913270
   6.4217330  30.8013710  50.4045440   6.3044450  32.2818990  50.1110160
   9.6250820  31.7869170  40.0152410   9.3988400  31.0699610  40.6077050
   9.2347020  31.5381610  39.1774160   7.5532720  32.3015450  53.4949330
   7.8888960  32.8882140  54.1727250   6.6333060  32.1708160  53.7247120
   9.2067070  29.7041110  41.6766570   8.9188770  30.1653800  42.4644450
  10.0019240  29.2438880  41.9450790   3.3821300  32.3506780  56.6637390
   3.0618170  31.6316020  57.2083080   2.7079660  33.0261850  56.7373450
   6.5974900  22.5832940  52.0274190   6.9655720  21.7628150  52.3553760
   5.7373100  22.6434830  52.4429840   9.9636930  21.5389880  42.8361750
   9.3350090  21.6435550  42.1219980   9.4688850  21.7586660  43.6255630
   4.4095070  33.2595470  40.2695730   4.5107050  33.0559460  39.3397710
   3.5096810  33.0053750  40.4743510   3.5576890  25.2372530  52.2512160
   4.0562140  25.7118350  52.9164010   3.6999840  24.3136050  52.4582190
   5.9636390  20.5426490  45.6915420   5.8404170  20.5612620  44.7424930
   6.9120950  20.5905430  45.8113820   3.0513180  35.7781790  44.9643400
   3.3054680  35.7403180  44.0422770   2.1025660  35.6515120  44.9571650
  10.7643750  21.4540490  53.0940550  10.2617350  22.1945890  53.4334360
  11.5800410  21.8424490  52.7777340   9.0565760  26.6973670  46.5401910
   8.1155900  26.7123900  46.7149600   9.3709830  25.9109630  46.9862210
  11.0591340  33.8682520  48.2156170  11.1838760  34.6913690  48.6879980
  11.9256900  33.6573250  47.8680320   6.3731780  31.2539670  57.0234290
   5.7669940  31.2771270  56.2830040   6.0685890  30.5222710  57.5601540
   7.8032150  34.9819960  55.6343700   8.7553900  34.8977980  55.5843940
   7.6560370  35.6461670  56.3077490  10.6941350  34.3614170  41.1335610
  10.4082860  33.9479310  40.3189790  10.4960900  35.2901880  41.0136130
   2.1588580  30.3547450  39.5741220   2.0539220  29.7399800  40.3002600
   1.9912800  29.8313340  38.7904230   5.3991310  29.4167480  40.1783210
   4.8501410  29.8636780  40.8225950   6.0210570  28.9116730  40.7020880
   9.4526250  30.7709580  56.1105470  10.1935720  31.1085340  55.6072930
   8.6898930  30.9401640  55.5575240   3.5794070  27.3996010  39.3225610
   4.0999730  26.6845030  38.9566760   4.2262470  28.0381880  39.6226120
   8.1271910  28.8224410  54.6460680   8.5412930  28.9769490  55.4951100
   7.1922910  28.9479630  54.8086460   8.5994080  26.1620570  56.6499830
   9.1814850  25.4072890  56.5620310   8.7755850  26.6928010  55.8731310
   2.4827590  19.8790560  51.9944170   2.0344890  19.9014820  51.1489720
   1.8492790  19.4809580  52.5914470   2.8887140  28.7744890  52.6156610
   3.3075250  29.6177620  52.4432850   1.9695770  28.9116930  52.3863390
   5.2251040  26.5061070  53.9994450   5.3447250  25.9102210  54.7389290
   6.0845040  26.5430760  53.5795750   7.5638940  27.0598260  52.5756960
   7.0374160  27.5840880  51.9722100   7.9070280  27.6925650  53.2066690
   6.8113240  22.6648230  55.4903290   6.1228760  22.0029770  55.4253280
   7.5319260  22.2186500  55.9351750   7.4413640  19.2599860  41.5493550
   7.7215930  18.4167760  41.9052970   6.6679370  19.4922970  42.0632300
   3.5956770  36.3149110  53.9900990   3.5215470  37.2184250  54.2973360
   2.6935610  35.9961010  53.9623060   4.1442100  35.4807620  41.6127350
   5.0392890  35.8192590  41.6346110   4.1759730  34.7587030  40.9851630
  11.1236450  34.0111290  54.3193550  10.5238440  34.0703850  53.5757470
  11.2530350  33.0716270  54.4490400  12.3637900  31.7529110  39.6563260
  11.5330860  31.8205760  40.1270490  12.5409730  32.6433230  39.3530120
  11.8194360  28.4976590  42.1597460  12.5813270  29.0673240  42.2657150
  11.8348730  27.9303790  42.9305770  12.8254330  29.3526690  47.0039390
  13.1963160  28.5694010  46.5975360  13.4656260  30.0415790  46.8256690
   9.8088090  30.7363270  52.4169710   8.9947930  31.1660430  52.6795500
  10.2162290  31.3481680  51.8038760  11.8713530  28.7910960  39.3169980
  12.1462370  29.6989840  39.1889200  11.6824270  28.7273490  40.2531970
   8.2689140  21.8155810  40.6123610   8.6874020  21.6286790  39.7720270
   7.9625200  20.9634860  40.9226540  11.7678870  26.7279950  44.3099410
  11.3922470  25.9607880  43.8780700  11.0381990  27.1102650  44.7974340
  11.1578490  25.8751470  53.9438930  10.9264580  25.6464220  53.0436880
  11.4183040  26.7951020  53.8983820   9.5966560  21.1007900  56.7218630
  10.4736740  21.1091300  57.1052630   9.6087400  20.3638740  56.1110980
  11.0429830  24.9537440  47.6106650  11.5667310  24.4600090  46.9796820
  11.6289250  25.0887800  48.3554220  11.2219550  25.0377310  51.1326200
  10.2722260  25.0040850  51.2471190  11.4032560  25.9477420  50.8975970
  10.5329800  24.2110790  43.5499060  11.0288920  23.9781660  44.3347940
  10.3345870  23.3722630  43.1336700  11.9616960  22.8471740  46.0836740
  11.8516240  22.6927780  47.0219010  12.7224550  22.3192680  45.8412150
  10.3082680  18.7865870  52.5419740  10.9454900  19.4000010  52.9078930
  10.4557570  18.8226530  51.5968970  12.8507230  20.6779660  39.3242880
  13.7756540  20.5460840  39.1161170  12.8283020  20.7572480  40.2779330
  12.9245720  21.4490320  41.9499590  12.1297220  21.3835440  42.4792500
  13.1289000  22.3840960  41.9384940   9.8664140  35.4881870  45.9437980
  10.4623210  35.1666440  45.2672400  10.1242290  35.0153690  46.7351250
   3.6787160  19.9392060  55.4494840   3.6176050  20.5313890  56.1990250
   4.6187540  19.8318020  55.3045100   6.3161720  19.5962120  55.0887130
   6.9302130  19.9141410  54.4268210   6.8611280  19.1110710  55.7082990
  12.7336900  35.4953750  52.4948970  12.2395180  35.8922620  51.7776100
  12.1250190  34.8702960  52.8886250   7.0569760  18.1594260  51.4156420
   6.1829600  18.4929370  51.2129350   6.9480510  17.6867440  52.2408290
   7.9641740  20.3665130  52.7998140   7.6355100  19.5516890  52.4199870
   8.9124040  20.3234940  52.6763830  10.4176350  36.1377170  49.7735710
   9.9579320  36.8892980  49.3993730   9.7888810  35.4183640  49.7150510
   3.5867570  35.3373900  49.7752820   3.8745380  35.0828200  48.8985830
   4.0990790  34.7851260  50.3658390   4.8044580  19.0764100  50.3549330
   4.0216370  19.5509600  50.6346090   4.5107510  18.1718930  50.2462510
   9.3565650  19.7787200  48.3998420   9.7973740  19.7232300  47.5520020
   9.0873240  20.6945210  48.4708600  11.2204220  19.4102440  46.4107240
  11.1592620  18.4663660  46.2638260  11.9996250  19.5182530  46.9560700
   2.6898800  21.4950850  45.8665360   1.8773310  21.1207740  45.5261240
   3.1940440  20.7395930  46.1686550   7.1923780  18.1593300  47.1048430
   7.7953150  18.7313510  47.5796950   6.4516770  18.7232740  46.8822330
  10.3358380  18.5614860  42.3788710  10.5309010  19.4598310  42.6456140
   9.5488250  18.3301940  42.8721660   3.6539930  36.2590000  57.1421020
   4.5807240  36.0234270  57.1856980   3.6390360  37.0862000  56.6607050
  11.8884990  35.8015570  44.1395270  12.0637180  35.1153310  43.4956190
  11.1906560  36.3262620  43.7471940   7.4419000  18.3388330  57.4843370
   7.3284450  18.6582940  58.3794890   8.2588740  18.7400840  57.1880650
  10.2217490  35.4859860  56.9662060  11.0142810  34.9909090  56.7588020
  10.5150640  36.1650000  57.5737670   6.3477150  26.3580800  27.8478110
   6.2671200  25.4435410  27.5769820   5.9341570  26.8547870  27.1417820
   4.4795190  28.1359820  29.7287380   3.7037290  27.6560260  30.0185950
   5.1308120  27.4565470  29.5543540   8.5002620  32.5420010  28.5086510
   8.0384150  31.7707250  28.8373680   9.3128170  32.5686080  29.0138960
   4.7265930  34.8278020  28.1290500   4.1077370  35.2835520  27.5584940
   5.5817710  34.9829480  27.7280200   3.9204180  30.8117010  29.7357540
   3.8512460  29.8706950  29.5746670   4.6824040  30.9018420  30.3080110
   4.9509350  23.6187390  29.9626470   5.3274170  22.7459270  29.8500140
   4.8528860  23.9546090  29.0716910   8.7333470  21.1137830  26.8954810
   9.5543090  20.6234400  26.9380290   8.7667550  21.7035490  27.6486650
  13.0233020  23.1304580  33.4598440  12.3185190  23.5186290  32.9413550
  13.2890940  23.8254870  34.0619370   5.5929280  29.7117260  25.5222410
   4.9746550  30.1766710  24.9585130   6.1052530  30.4044740  25.9391920
   8.9694950  23.0538210  29.6682350   8.2650520  23.3423100  30.2485460
   9.3307110  23.8638320  29.3081910  10.5857730  32.6713340  31.9309830
   9.9021250  33.3412450  31.9226500  11.1252020  32.8693990  31.1654690
  12.0381870  22.4993000  30.0591560  11.0906780  22.5331980  30.1906990
  12.3631860  23.3131950  30.4440920   8.1216470  34.5157470  30.6455010
   8.1343630  34.1119760  29.7777270   7.5691690  35.2904760  30.5416440
   9.4161890  31.2373690  25.7345180   9.3058220  30.2948020  25.8594600
   9.4130140  31.5989330  26.6207940   7.5201910  29.4187310  31.9737620
   7.9370700  29.2047420  31.1391080   8.2441730  29.6760100  32.5446240
   4.9582170  26.8639010  25.0907670   4.0311450  26.7976390  25.3196140
   5.1106990  27.8019140  24.9762910   4.9451250  23.1356010  22.0874830
   4.0054920  23.2969970  22.1727290   5.2634510  23.8541690  21.5410820
  11.4664010  27.8174530  32.0653860  10.6382640  27.8867620  31.5903990
  12.0614490  28.4028840  31.5969690   8.9879460  28.4259310  25.5942920
   8.3691880  28.0878860  24.9469220   8.9703910  27.7819070  26.3022110
   8.4306020  24.6043850  33.0108730   8.0177200  25.4297560  33.2648720
   7.6981970  24.0188890  32.8185090   9.1206120  34.6503180  33.6989710
   8.6436680  35.4575370  33.5062320   8.4367910  33.9981510  33.8515920
   7.1644160  27.6646120  22.6015670   7.6037440  26.8268550  22.4553490
   7.8772580  28.2975520  22.6879810   5.2739540  32.6042190  26.5696910
   5.7135450  33.3466520  26.1552300   5.2126430  32.8468760  27.4935870
  10.7461300  18.9188930  20.9156710  10.4333960  19.0115760  21.8155780
  11.5073770  19.4969960  20.8654140  12.7005330  34.4115120  38.7681100
  13.1765050  34.8898010  39.4470180  13.3212490  34.3432610  38.0426600
  12.1038580  31.6027970  35.9281110  12.2301640  31.3639850  35.0098290
  12.1459960  30.7712510  36.4003190   5.9655320  35.3055970  34.4975920
   6.4799990  35.2163980  35.2998350   5.1224400  35.6515670  34.7903830
   7.9409720  35.5911310  23.9259920   7.7810860  35.3014250  24.8241750
   7.7756430  34.8151440  23.3905150   7.6435850  33.0998870  22.4857920
   6.9501010  33.0976160  21.8260200   8.3858710  32.6758190  22.0552090
   7.2085780  34.7261580  26.5606410   7.6642730  33.9450960  26.8745030
   7.5478300  35.4368400  27.1047590  11.9562590  23.6560430  36.8930850
  11.3406860  24.1640100  36.3646310  11.6359010  22.7558760  36.8356790
   4.0176910  22.4952320  34.3593040   3.5556280  22.7035340  35.1712980
   3.6155020  21.6811670  34.0563710   9.0181420  23.7161270  35.4889700
   8.1675010  23.4167020  35.8098770   8.8583210  23.9603280  34.5773520
   6.1131130  25.2163020  37.5888490   6.4384540  24.3826770  37.2490720
   6.9011460  25.7391540  37.7366820   2.8465920  19.2494500  23.6363550
   2.2220100  19.2454370  24.3616860   2.7596040  18.3825460  23.2399520
   1.7683000  20.1731130  30.6147320   2.0655330  21.0793960  30.5339340
   2.3168560  19.6849910  30.0006890   6.7519080  24.7580740  25.0829620
   6.1527970  25.4816540  24.8993240   7.2998690  24.6957520  24.3006070
   1.9620530  25.6502950  37.1499240   1.8664130  24.7097680  36.9999640
   2.8052510  25.8718020  36.7547310   5.3583950  23.3944280  27.1132900
   5.7513520  23.7116480  26.3001590   5.7200800  22.5156160  27.2277420
   3.6676120  22.1451590  38.3729760   2.9774440  21.9523790  39.0075850
   4.4108420  22.4286230  38.9054060   5.9439090  25.9850030  31.2083680
   5.2120210  26.4936840  31.5573780   5.5463430  25.1680010  30.9072460
   2.3816480  22.6604230  29.6136170   2.3852540  22.2194180  28.7640710
   3.2767600  22.9821560  29.7207990   2.4436630  23.6616310  22.6042930
   2.5649450  23.6202790  23.5528750   2.0585140  24.5240460  22.4489660
   6.4065000  21.4383710  30.6206620   6.4237740  21.8892360  31.4648470
   6.1580580  20.5389350  30.8340060   9.8335750  18.8515890  36.4593000
  10.1581520  18.1205550  36.9850980   9.8692260  18.5329530  35.5573990
   2.6824450  26.7206010  31.3601580   3.0494580  26.2464580  32.1062920
   2.4929510  27.5947580  31.7009920   9.7593590  28.9641000  30.0679030
  10.4792710  29.4596290  29.6775140   9.5575410  28.2858890  29.4232900
   5.2203530  20.3578960  24.2108420   4.4068140  19.8592130  24.1353730
   5.0265480  21.1977210  23.7944770   5.1412390  29.0350060  35.9548030
   5.0749700  28.1145730  35.7005620   4.5117530  29.1325500  36.6692670
   7.9351920  24.7298610  22.5070580   8.8231540  25.0415840  22.3321920
   7.9057010  23.8570860  22.1151160   3.9312510  30.9022300  23.1858750
   4.2728210  31.6464530  22.6902070   3.1025220  31.2153420  23.5483580
   5.0729120  31.8570630  35.7051830   5.0873660  30.9251590  35.4870740
   4.3654220  31.9430390  36.3441600  10.2066190  26.0410450  21.9750440
  10.1229910  26.4724670  21.1246880  10.9260380  26.5008800  22.4077260
  11.2840330  28.4977970  35.0520410  10.5588520  29.0906750  34.8549800
  11.8115790  28.4901510  34.2533780  11.2353440  32.8952710  24.7032570
  10.5929600  32.2408330  24.9776290  10.8484100  33.3007800  23.9273240
   6.8139920  30.2238140  28.5504260   7.1663740  29.6266270  27.8905630
   5.9302250  29.8982370  28.7212510   2.9003200  30.9835830  25.9574670
   3.5874330  31.5305040  26.3382260   2.1135620  31.5276560  25.9924280
   2.2030410  27.9881860  25.5700030   2.6593190  28.7987110  25.7960220
   1.8518620  27.6705000  26.4018520   4.5063020  33.4988200  32.7992330
   5.1505240  33.7047580  33.4765750   4.8692460  32.7376600  32.3463180
   5.7795100  31.5020550  31.5169780   6.4217330  30.8013710  31.6301950
   6.3044450  32.2818990  31.3366670   9.6250820  31.7869170  21.2408920
   9.3988400  31.0699610  21.8333560   9.2347020  31.5381610  20.4030670
   7.5532720  32.3015450  34.7205840   7.8888960  32.8882140  35.3983760
   6.6333060  32.1708160  34.9503630   9.2067070  29.7041110  22.9023080
   8.9188770  30.1653800  23.6900960  10.0019240  29.2438880  23.1707300
   3.3821300  32.3506780  37.8893900   3.0618170  31.6316020  38.4339590
   2.7079660  33.0261850  37.9629960   6.5974900  22.5832940  33.2530700
   6.9655720  21.7628150  33.5810270   5.7373100  22.6434830  33.6686350
   9.9636930  21.5389880  24.0618260   9.3350090  21.6435550  23.3476490
   9.4688850  21.7586660  24.8512140   4.4095070  33.2595470  21.4952240
   4.5107050  33.0559460  20.5654220   3.5096810  33.0053750  21.7000020
   3.5576890  25.2372530  33.4768670   4.0562140  25.7118350  34.1420520
   3.6999840  24.3136050  33.6838700   5.9636390  20.5426490  26.9171930
   5.8404170  20.5612620  25.9681440   6.9120950  20.5905430  27.0370330
   3.0513180  35.7781790  26.1899910   3.3054680  35.7403180  25.2679280
   2.1025660  35.6515120  26.1828160  10.7643750  21.4540490  34.3197060
  10.2617350  22.1945890  34.6590870  11.5800410  21.8424490  34.0033850
   9.0565760  26.6973670  27.7658420   8.1155900  26.7123900  27.9406110
   9.3709830  25.9109630  28.2118720  11.0591340  33.8682520  29.4412680
  11.1838760  34.6913690  29.9136490  11.9256900  33.6573250  29.0936830
   6.3731780  31.2539670  38.2490800   5.7669940  31.2771270  37.5086550
   6.0685890  30.5222710  38.7858050   7.8032150  34.9819960  36.8600210
   8.7553900  34.8977980  36.8100450   7.6560370  35.6461670  37.5334000
  10.6941350  34.3614170  22.3592120  10.4082860  33.9479310  21.5446300
  10.4960900  35.2901880  22.2392640   2.1588580  30.3547450  20.7997730
   2.0539220  29.7399800  21.5259110   1.9912800  29.8313340  20.0160740
   5.3991310  29.4167480  21.4039720   4.8501410  29.8636780  22.0482460
   6.0210570  28.9116730  21.9277390   9.4526250  30.7709580  37.3361980
  10.1935720  31.1085340  36.8329440   8.6898930  30.9401640  36.7831750
   3.5794070  27.3996010  20.5482120   4.0999730  26.6845030  20.1823270
   4.2262470  28.0381880  20.8482630   8.1271910  28.8224410  35.8717190
   8.5412930  28.9769490  36.7207610   7.1922910  28.9479630  36.0342970
   8.5994080  26.1620570  37.8756340   9.1814850  25.4072890  37.7876820
   8.7755850  26.6928010  37.0987820   2.4827590  19.8790560  33.2200680
   2.0344890  19.9014820  32.3746230   1.8492790  19.4809580  33.8170980
   2.8887140  28.7744890  33.8413120   3.3075250  29.6177620  33.6689360
   1.9695770  28.9116930  33.6119900   5.2251040  26.5061070  35.2250960
   5.3447250  25.9102210  35.9645800   6.0845040  26.5430760  34.8052260
   7.5638940  27.0598260  33.8013470   7.0374160  27.5840880  33.1978610
   7.9070280  27.6925650  34.4323200   6.8113240  22.6648230  36.7159800
   6.1228760  22.0029770  36.6509790   7.5319260  22.2186500  37.1608260
   7.4413640  19.2599860  22.7750060   7.7215930  18.4167760  23.1309480
   6.6679370  19.4922970  23.2888810   3.5956770  36.3149110  35.2157500
   3.5215470  37.2184250  35.5229870   2.6935610  35.9961010  35.1879570
   4.1442100  35.4807620  22.8383860   5.0392890  35.8192590  22.8602620
   4.1759730  34.7587030  22.2108140  11.1236450  34.0111290  35.5450060
  10.5238440  34.0703850  34.8013980  11.2530350  33.0716270  35.6746910
  12.3637900  31.7529110  20.8819770  11.5330860  31.8205760  21.3527000
  12.5409730  32.6433230  20.5786630  11.8194360  28.4976590  23.3853970
  12.5813270  29.0673240  23.4913660  11.8348730  27.9303790  24.1562280
  12.8254330  29.3526690  28.2295900  13.1963160  28.5694010  27.8231870
  13.4656260  30.0415790  28.0513200   9.8088090  30.7363270  33.6426220
   8.9947930  31.1660430  33.9052010  10.2162290  31.3481680  33.0295270
  11.8713530  28.7910960  20.5426490  12.1462370  29.6989840  20.4145710
  11.6824270  28.7273490  21.4788480   8.2689140  21.8155810  21.8380120
   8.6874020  21.6286790  20.9976780   7.9625200  20.9634860  22.1483050
  11.7678870  26.7279950  25.5355920  11.3922470  25.9607880  25.1037210
  11.0381990  27.1102650  26.0230850  11.1578490  25.8751470  35.1695440
  10.9264580  25.6464220  34.2693390  11.4183040  26.7951020  35.1240330
   9.5966560  21.1007900  37.9475140  10.4736740  21.1091300  38.3309140
   9.6087400  20.3638740  37.3367490  11.0429830  24.9537440  28.8363160
  11.5667310  24.4600090  28.2053330  11.6289250  25.0887800  29.5810730
  11.2219550  25.0377310  32.3582710  10.2722260  25.0040850  32.4727700
  11.4032560  25.9477420  32.1232480  10.5329800  24.2110790  24.7755570
  11.0288920  23.9781660  25.5604450  10.3345870  23.3722630  24.3593210
  11.9616960  22.8471740  27.3093250  11.8516240  22.6927780  28.2475520
  12.7224550  22.3192680  27.0668660  10.3082680  18.7865870  33.7676250
  10.9454900  19.4000010  34.1335440  10.4557570  18.8226530  32.8225480
  12.8507230  20.6779660  20.5499390  13.7756540  20.5460840  20.3417680
  12.8283020  20.7572480  21.5035840  12.9245720  21.4490320  23.1756100
  12.1297220  21.3835440  23.7049010  13.1289000  22.3840960  23.1641450
   9.8664140  35.4881870  27.1694490  10.4623210  35.1666440  26.4928910
  10.1242290  35.0153690  27.9607760   3.6787160  19.9392060  36.6751350
   3.6176050  20.5313890  37.4246760   4.6187540  19.8318020  36.5301610
   6.3161720  19.5962120  36.3143640   6.9302130  19.9141410  35.6524720
   6.8611280  19.1110710  36.9339500  12.7336900  35.4953750  33.7205480
  12.2395180  35.8922620  33.0032610  12.1250190  34.8702960  34.1142760
   7.0569760  18.1594260  32.6412930   6.1829600  18.4929370  32.4385860
   6.9480510  17.6867440  33.4664800   7.9641740  20.3665130  34.0254650
   7.6355100  19.5516890  33.6456380   8.9124040  20.3234940  33.9020340
  10.4176350  36.1377170  30.9992220   9.9579320  36.8892980  30.6250240
   9.7888810  35.4183640  30.9407020   3.5867570  35.3373900  31.0009330
   3.8745380  35.0828200  30.1242340   4.0990790  34.7851260  31.5914900
   4.8044580  19.0764100  31.5805840   4.0216370  19.5509600  31.8602600
   4.5107510  18.1718930  31.4719020   9.3565650  19.7787200  29.6254930
   9.7973740  19.7232300  28.7776530   9.0873240  20.6945210  29.6965110
  11.2204220  19.4102440  27.6363750  11.1592620  18.4663660  27.4894770
  11.9996250  19.5182530  28.1817210   2.6898800  21.4950850  27.0921870
   1.8773310  21.1207740  26.7517750   3.1940440  20.7395930  27.3943060
   7.1923780  18.1593300  28.3304940   7.7953150  18.7313510  28.8053460
   6.4516770  18.7232740  28.1078840  10.3358380  18.5614860  23.6045220
  10.5309010  19.4598310  23.8712650   9.5488250  18.3301940  24.0978170
   3.6539930  36.2590000  38.3677530   4.5807240  36.0234270  38.4113490
   3.6390360  37.0862000  37.8863560  11.8884990  35.8015570  25.3651780
  12.0637180  35.1153310  24.7212700  11.1906560  36.3262620  24.9728450
   7.4419000  18.3388330  38.7099880   7.3284450  18.6582940  39.6051400
   8.2588740  18.7400840  38.4137160  10.2217490  35.4859860  38.1918570
  11.0142810  34.9909090  37.9844530  10.5150640  36.1650000  38.7994180
   6.3477150  26.3580800   9.0734620   6.2671200  25.4435410   8.8026330
   5.9341570  26.8547870   8.3674330   4.4795190  28.1359820  10.9543890
   3.7037290  27.6560260  11.2442460   5.1308120  27.4565470  10.7800050
   8.5002620  32.5420010   9.7343020   8.0384150  31.7707250  10.0630190
   9.3128170  32.5686080  10.2395470   4.7265930  34.8278020   9.3547010
   4.1077370  35.2835520   8.7841450   5.5817710  34.9829480   8.9536710
   3.9204180  30.8117010  10.9614050   3.8512460  29.8706950  10.8003180
   4.6824040  30.9018420  11.5336620   4.9509350  23.6187390  11.1882980
   5.3274170  22.7459270  11.0756650   4.8528860  23.9546090  10.2973420
   8.7333470  21.1137830   8.1211320   9.5543090  20.6234400   8.1636800
   8.7667550  21.7035490   8.8743160  13.0233020  23.1304580  14.6854950
  12.3185190  23.5186290  14.1670060  13.2890940  23.8254870  15.2875880
   5.5929280  29.7117260   6.7478920   4.9746550  30.1766710   6.1841640
   6.1052530  30.4044740   7.1648430   8.9694950  23.0538210  10.8938860
   8.2650520  23.3423100  11.4741970   9.3307110  23.8638320  10.5338420
  10.5857730  32.6713340  13.1566340   9.9021250  33.3412450  13.1483010
  11.1252020  32.8693990  12.3911200  12.0381870  22.4993000  11.2848070
  11.0906780  22.5331980  11.4163500  12.3631860  23.3131950  11.6697430
   8.1216470  34.5157470  11.8711520   8.1343630  34.1119760  11.0033780
   7.5691690  35.2904760  11.7672950   9.4161890  31.2373690   6.9601690
   9.3058220  30.2948020   7.0851110   9.4130140  31.5989330   7.8464450
   7.5201910  29.4187310  13.1994130   7.9370700  29.2047420  12.3647590
   8.2441730  29.6760100  13.7702750   4.9582170  26.8639010   6.3164180
   4.0311450  26.7976390   6.5452650   5.1106990  27.8019140   6.2019420
   4.9451250  23.1356010   3.3131340   4.0054920  23.2969970   3.3983800
   5.2634510  23.8541690   2.7667330  11.4664010  27.8174530  13.2910370
  10.6382640  27.8867620  12.8160500  12.0614490  28.4028840  12.8226200
   8.9879460  28.4259310   6.8199430   8.3691880  28.0878860   6.1725730
   8.9703910  27.7819070   7.5278620   8.4306020  24.6043850  14.2365240
   8.0177200  25.4297560  14.4905230   7.6981970  24.0188890  14.0441600
   9.1206120  34.6503180  14.9246220   8.6436680  35.4575370  14.7318830
   8.4367910  33.9981510  15.0772430   7.1644160  27.6646120   3.8272180
   7.6037440  26.8268550   3.6810000   7.8772580  28.2975520   3.9136320
   5.2739540  32.6042190   7.7953420   5.7135450  33.3466520   7.3808810
   5.2126430  32.8468760   8.7192380  10.7461300  18.9188930   2.1413220
  10.4333960  19.0115760   3.0412290  11.5073770  19.4969960   2.0910650
  12.7005330  34.4115120  19.9937610  13.1765050  34.8898010  20.6726690
  13.3212490  34.3432610  19.2683110  12.1038580  31.6027970  17.1537620
  12.2301640  31.3639850  16.2354800  12.1459960  30.7712510  17.6259700
   5.9655320  35.3055970  15.7232430   6.4799990  35.2163980  16.5254860
   5.1224400  35.6515670  16.0160340   7.9409720  35.5911310   5.1516430
   7.7810860  35.3014250   6.0498260   7.7756430  34.8151440   4.6161660
   7.6435850  33.0998870   3.7114430   6.9501010  33.0976160   3.0516710
   8.3858710  32.6758190   3.2808600   7.2085780  34.7261580   7.7862920
   7.6642730  33.9450960   8.1001540   7.5478300  35.4368400   8.3304100
  11.9562590  23.6560430  18.1187360  11.3406860  24.1640100  17.5902820
  11.6359010  22.7558760  18.0613300   4.0176910  22.4952320  15.5849550
   3.5556280  22.7035340  16.3969490   3.6155020  21.6811670  15.2820220
   9.0181420  23.7161270  16.7146210   8.1675010  23.4167020  17.0355280
   8.8583210  23.9603280  15.8030030   6.1131130  25.2163020  18.8145000
   6.4384540  24.3826770  18.4747230   6.9011460  25.7391540  18.9623330
   2.8465920  19.2494500   4.8620060   2.2220100  19.2454370   5.5873370
   2.7596040  18.3825460   4.4656030   1.7683000  20.1731130  11.8403830
   2.0655330  21.0793960  11.7595850   2.3168560  19.6849910  11.2263400
   6.7519080  24.7580740   6.3086130   6.1527970  25.4816540   6.1249750
   7.2998690  24.6957520   5.5262580   1.9620530  25.6502950  18.3755750
   1.8664130  24.7097680  18.2256150   2.8052510  25.8718020  17.9803820
   5.3583950  23.3944280   8.3389410   5.7513520  23.7116480   7.5258100
   5.7200800  22.5156160   8.4533930   3.6676120  22.1451590  19.5986270
   2.9774440  21.9523790  20.2332360   4.4108420  22.4286230  20.1310570
   5.9439090  25.9850030  12.4340190   5.2120210  26.4936840  12.7830290
   5.5463430  25.1680010  12.1328970   2.3816480  22.6604230  10.8392680
   2.3852540  22.2194180   9.9897220   3.2767600  22.9821560  10.9464500
   2.4436630  23.6616310   3.8299440   2.5649450  23.6202790   4.7785260
   2.0585140  24.5240460   3.6746170   6.4065000  21.4383710  11.8463130
   6.4237740  21.8892360  12.6904980   6.1580580  20.5389350  12.0596570
   9.8335750  18.8515890  17.6849510  10.1581520  18.1205550  18.2107490
   9.8692260  18.5329530  16.7830500   2.6824450  26.7206010  12.5858090
   3.0494580  26.2464580  13.3319430   2.4929510  27.5947580  12.9266430
   9.7593590  28.9641000  11.2935540  10.4792710  29.4596290  10.9031650
   9.5575410  28.2858890  10.6489410   5.2203530  20.3578960   5.4364930
   4.4068140  19.8592130   5.3610240   5.0265480  21.1977210   5.0201280
   5.1412390  29.0350060  17.1804540   5.0749700  28.1145730  16.9262130
   4.5117530  29.1325500  17.8949180   7.9351920  24.7298610   3.7327090
   8.8231540  25.0415840   3.5578430   7.9057010  23.8570860   3.3407670
   3.9312510  30.9022300   4.4115260   4.2728210  31.6464530   3.9158580
   3.1025220  31.2153420   4.7740090   5.0729120  31.8570630  16.9308340
   5.0873660  30.9251590  16.7127250   4.3654220  31.9430390  17.5698110
  10.2066190  26.0410450   3.2006950  10.1229910  26.4724670   2.3503390
  10.9260380  26.5008800   3.6333770  11.2840330  28.4977970  16.2776920
  10.5588520  29.0906750  16.0806310  11.8115790  28.4901510  15.4790290
  11.2353440  32.8952710   5.9289080  10.5929600  32.2408330   6.2032800
  10.8484100  33.3007800   5.1529750   6.8139920  30.2238140   9.7760770
   7.1663740  29.6266270   9.1162140   5.9302250  29.8982370   9.9469020
   2.9003200  30.9835830   7.1831180   3.5874330  31.5305040   7.5638770
   2.1135620  31.5276560   7.2180790   2.2030410  27.9881860   6.7956540
   2.6593190  28.7987110   7.0216730   1.8518620  27.6705000   7.6275030
   4.5063020  33.4988200  14.0248840   5.1505240  33.7047580  14.7022260
   4.8692460  32.7376600  13.5719690   5.7795100  31.5020550  12.7426290
   6.4217330  30.8013710  12.8558460   6.3044450  32.2818990  12.5623180
   9.6250820  31.7869170   2.4665430   9.3988400  31.0699610   3.0590070
   9.2347020  31.5381610   1.6287180   7.5532720  32.3015450  15.9462350
   7.8888960  32.8882140  16.6240270   6.6333060  32.1708160  16.1760140
   9.2067070  29.7041110   4.1279590   8.9188770  30.1653800   4.9157470
  10.0019240  29.2438880   4.3963810   3.3821300  32.3506780  19.1150410
   3.0618170  31.6316020  19.6596100   2.7079660  33.0261850  19.1886470
   6.5974900  22.5832940  14.4787210   6.9655720  21.7628150  14.8066780
   5.7373100  22.6434830  14.8942860   9.9636930  21.5389880   5.2874770
   9.3350090  21.6435550   4.5733000   9.4688850  21.7586660   6.0768650
   4.4095070  33.2595470   2.7208750   4.5107050  33.0559460   1.7910730
   3.5096810  33.0053750   2.9256530   3.5576890  25.2372530  14.7025180
   4.0562140  25.7118350  15.3677030   3.6999840  24.3136050  14.9095210
   5.9636390  20.5426490   8.1428440   5.8404170  20.5612620   7.1937950
   6.9120950  20.5905430   8.2626840   3.0513180  35.7781790   7.4156420
   3.3054680  35.7403180   6.4935790   2.1025660  35.6515120   7.4084670
  10.7643750  21.4540490  15.5453570  10.2617350  22.1945890  15.8847380
  11.5800410  21.8424490  15.2290360   9.0565760  26.6973670   8.9914930
   8.1155900  26.7123900   9.1662620   9.3709830  25.9109630   9.4375230
  11.0591340  33.8682520  10.6669190  11.1838760  34.6913690  11.1393000
  11.9256900  33.6573250  10.3193340   6.3731780  31.2539670  19.4747310
   5.7669940  31.2771270  18.7343060   6.0685890  30.5222710  20.0114560
   7.8032150  34.9819960  18.0856720   8.7553900  34.8977980  18.0356960
   7.6560370  35.6461670  18.7590510  10.6941350  34.3614170   3.5848630
  10.4082860  33.9479310   2.7702810  10.4960900  35.2901880   3.4649150
   5.3991310  29.4167480   2.6296230   4.8501410  29.8636780   3.2738970
   6.0210570  28.9116730   3.1533900   9.4526250  30.7709580  18.5618490
  10.1935720  31.1085340  18.0585950   8.6898930  30.9401640  18.0088260
   8.1271910  28.8224410  17.0973700   8.5412930  28.9769490  17.9464120
   7.1922910  28.9479630  17.2599480   8.5994080  26.1620570  19.1012850
   9.1814850  25.4072890  19.0133330   8.7755850  26.6928010  18.3244330
   2.4827590  19.8790560  14.4457190   2.0344890  19.9014820  13.6002740
   1.8492790  19.4809580  15.0427490   2.8887140  28.7744890  15.0669630
   3.3075250  29.6177620  14.8945870   1.9695770  28.9116930  14.8376410
   5.2251040  26.5061070  16.4507470   5.3447250  25.9102210  17.1902310
   6.0845040  26.5430760  16.0308770   7.5638940  27.0598260  15.0269980
   7.0374160  27.5840880  14.4235120   7.9070280  27.6925650  15.6579710
   6.8113240  22.6648230  17.9416310   6.1228760  22.0029770  17.8766300
   7.5319260  22.2186500  18.3864770   7.4413640  19.2599860   4.0006570
   7.7215930  18.4167760   4.3565990   6.6679370  19.4922970   4.5145320
   3.5956770  36.3149110  16.4414010   3.5215470  37.2184250  16.7486380
   2.6935610  35.9961010  16.4136080   4.1442100  35.4807620   4.0640370
   5.0392890  35.8192590   4.0859130   4.1759730  34.7587030   3.4364650
  11.1236450  34.0111290  16.7706570  10.5238440  34.0703850  16.0270490
  11.2530350  33.0716270  16.9003420  12.3637900  31.7529110   2.1076280
  11.5330860  31.8205760   2.5783510  12.5409730  32.6433230   1.8043140
  11.8194360  28.4976590   4.6110480  12.5813270  29.0673240   4.7170170
  11.8348730  27.9303790   5.3818790  12.8254330  29.3526690   9.4552410
  13.1963160  28.5694010   9.0488380  13.4656260  30.0415790   9.2769710
   9.8088090  30.7363270  14.8682730   8.9947930  31.1660430  15.1308520
  10.2162290  31.3481680  14.2551780  11.8713530  28.7910960   1.7683000
  12.1462370  29.6989840   1.6402220  11.6824270  28.7273490   2.7044990
   8.2689140  21.8155810   3.0636630   8.6874020  21.6286790   2.2233290
   7.9625200  20.9634860   3.3739560  11.7678870  26.7279950   6.7612430
  11.3922470  25.9607880   6.3293720  11.0381990  27.1102650   7.2487360
  11.1578490  25.8751470  16.3951950  10.9264580  25.6464220  15.4949900
  11.4183040  26.7951020  16.3496840   9.5966560  21.1007900  19.1731650
  10.4736740  21.1091300  19.5565650   9.6087400  20.3638740  18.5624000
  11.0429830  24.9537440  10.0619670  11.5667310  24.4600090   9.4309840
  11.6289250  25.0887800  10.8067240  11.2219550  25.0377310  13.5839220
  10.2722260  25.0040850  13.6984210  11.4032560  25.9477420  13.3488990
  10.5329800  24.2110790   6.0012080  11.0288920  23.9781660   6.7860960
  10.3345870  23.3722630   5.5849720  11.9616960  22.8471740   8.5349760
  11.8516240  22.6927780   9.4732030  12.7224550  22.3192680   8.2925170
  10.3082680  18.7865870  14.9932760  10.9454900  19.4000010  15.3591950
  10.4557570  18.8226530  14.0481990  12.8507230  20.6779660   1.7755900
  13.7756540  20.5460840   1.5674190  12.8283020  20.7572480   2.7292350
  12.9245720  21.4490320   4.4012610  12.1297220  21.3835440   4.9305520
  13.1289000  22.3840960   4.3897960   9.8664140  35.4881870   8.3951000
  10.4623210  35.1666440   7.7185420  10.1242290  35.0153690   9.1864270
   3.6787160  19.9392060  17.9007860   3.6176050  20.5313890  18.6503270
   4.6187540  19.8318020  17.7558120   6.3161720  19.5962120  17.5400150
   6.9302130  19.9141410  16.8781230   6.8611280  19.1110710  18.1596010
  12.7336900  35.4953750  14.9461990  12.2395180  35.8922620  14.2289120
  12.1250190  34.8702960  15.3399270   7.0569760  18.1594260  13.8669440
   6.1829600  18.4929370  13.6642370   6.9480510  17.6867440  14.6921310
   7.9641740  20.3665130  15.2511160   7.6355100  19.5516890  14.8712890
   8.9124040  20.3234940  15.1276850  10.4176350  36.1377170  12.2248730
   9.9579320  36.8892980  11.8506750   9.7888810  35.4183640  12.1663530
   3.5867570  35.3373900  12.2265840   3.8745380  35.0828200  11.3498850
   4.0990790  34.7851260  12.8171410   4.8044580  19.0764100  12.8062350
   4.0216370  19.5509600  13.0859110   4.5107510  18.1718930  12.6975530
   9.3565650  19.7787200  10.8511440   9.7973740  19.7232300  10.0033040
   9.0873240  20.6945210  10.9221620  11.2204220  19.4102440   8.8620260
  11.1592620  18.4663660   8.7151280  11.9996250  19.5182530   9.4073720
   2.6898800  21.4950850   8.3178380   1.8773310  21.1207740   7.9774260
   3.1940440  20.7395930   8.6199570   7.1923780  18.1593300   9.5561450
   7.7953150  18.7313510  10.0309970   6.4516770  18.7232740   9.3335350
  10.3358380  18.5614860   4.8301730  10.5309010  19.4598310   5.0969160
   9.5488250  18.3301940   5.3234680   3.6539930  36.2590000  19.5934040
   4.5807240  36.0234270  19.6370000   3.6390360  37.0862000  19.1120070
  11.8884990  35.8015570   6.5908290  12.0637180  35.1153310   5.9469210
  11.1906560  36.3262620   6.1984960   7.4419000  18.3388330  19.9356390
   7.3284450  18.6582940  20.8307910   8.2588740  18.7400840  19.6393670
  10.2217490  35.4859860  19.4175080  11.0142810  34.9909090  19.2101040
  10.5150640  36.1650000  20.0250690   6.3477150   7.5837310  65.3965090
   6.2671200   6.6691920  65.1256800   5.9341570   8.0804380  64.6904800
   4.4795190   9.3616330  67.2774360   3.7037290   8.8816770  67.5672930
   5.1308120   8.6821980  67.1030520   8.5002620  13.7676520  66.0573490
   8.0384150  12.9963760  66.3860660   9.3128170  13.7942590  66.5625940
   4.7265930  16.0534530  65.6777480   4.1077370  16.5092030  65.1071920
   5.5817710  16.2085990  65.2767180   3.9204180  12.0373520  67.2844520
   3.8512460  11.0963460  67.1233650   4.6824040  12.1274930  67.8567090
   4.9509350   4.8443900  67.5113450   5.3274170   3.9715780  67.3987120
   4.8528860   5.1802600  66.6203890   8.7333470   2.3394340  64.4441790
   9.5543090   1.8490910  64.4867270   8.7667550   2.9292000  65.1973630
  13.0233020   4.3561090  71.0085420  12.3185190   4.7442800  70.4900530
  13.2890940   5.0511380  71.6106350   5.5929280  10.9373770  63.0709390
   4.9746550  11.4023220  62.5072110   6.1052530  11.6301250  63.4878900
   8.9694950   4.2794720  67.2169330   8.2650520   4.5679610  67.7972440
   9.3307110   5.0894830  66.8568890  10.5857730  13.8969850  69.4796810
   9.9021250  14.5668960  69.4713480  11.1252020  14.0950500  68.7141670
  12.0381870   3.7249510  67.6078540  11.0906780   3.7588490  67.7393970
  12.3631860   4.5388460  67.9927900   8.1216470  15.7413980  68.1941990
   8.1343630  15.3376270  67.3264250   7.5691690  16.5161270  68.0903420
   9.4161890  12.4630200  63.2832160   9.3058220  11.5204530  63.4081580
   9.4130140  12.8245840  64.1694920   7.5201910  10.6443820  69.5224600
   7.9370700  10.4303930  68.6878060   8.2441730  10.9016610  70.0933220
   4.9582170   8.0895520  62.6394650   4.0311450   8.0232900  62.8683120
   5.1106990   9.0275650  62.5249890   4.9451250   4.3612520  59.6361810
   4.0054920   4.5226480  59.7214270   5.2634510   5.0798200  59.0897800
  11.4664010   9.0431040  69.6140840  10.6382640   9.1124130  69.1390970
  12.0614490   9.6285350  69.1456670   8.9879460   9.6515820  63.1429900
   8.3691880   9.3135370  62.4956200   8.9703910   9.0075580  63.8509090
   8.4306020   5.8300360  70.5595710   8.0177200   6.6554070  70.8135700
   7.6981970   5.2445400  70.3672070   9.1206120  15.8759690  71.2476690
   8.6436680  16.6831880  71.0549300   8.4367910  15.2238020  71.4002900
   7.1644160   8.8902630  60.1502650   7.6037440   8.0525060  60.0040470
   7.8772580   9.5232030  60.2366790   5.2739540  13.8298700  64.1183890
   5.7135450  14.5723030  63.7039280   5.2126430  14.0725270  65.0422850
  12.1038580  12.8284480  73.4768090  12.2301640  12.5896360  72.5585270
  12.1459960  11.9969020  73.9490170   5.9655320  16.5312480  72.0462900
   6.4799990  16.4420490  72.8485330   5.1224400  16.8772180  72.3390810
   7.9409720  16.8167820  61.4746900   7.7810860  16.5270760  62.3728730
   7.7756430  16.0407950  60.9392130   7.6435850  14.3255380  60.0344900
   6.9501010  14.3232670  59.3747180   8.3858710  13.9014700  59.6039070
   7.2085780  15.9518090  64.1093390   7.6642730  15.1707470  64.4232010
   7.5478300  16.6624910  64.6534570  11.9562590   4.8816940  74.4417830
  11.3406860   5.3896610  73.9133290  11.6359010   3.9815270  74.3843770
   4.0176910   3.7208830  71.9080020   3.5556280   3.9291850  72.7199960
   3.6155020   2.9068180  71.6050690   9.0181420   4.9417780  73.0376680
   8.1675010   4.6423530  73.3585750   8.8583210   5.1859790  72.1260500
   6.1131130   6.4419530  75.1375470   6.4384540   5.6083280  74.7977700
   6.9011460   6.9648050  75.2853800   6.7519080   5.9837250  62.6316600
   6.1527970   6.7073050  62.4480220   7.2998690   5.9214030  61.8493050
   1.9620530   6.8759460  74.6986220   1.8664130   5.9354190  74.5486620
   2.8052510   7.0974530  74.3034290   5.3583950   4.6200790  64.6619880
   5.7513520   4.9372990  63.8488570   5.7200800   3.7412670  64.7764400
   5.9439090   7.2106540  68.7570660   5.2120210   7.7193350  69.1060760
   5.5463430   6.3936520  68.4559440   2.3816480   3.8860740  67.1623150
   2.3852540   3.4450690  66.3127690   3.2767600   4.2078070  67.2694970
   2.4436630   4.8872820  60.1529910   2.5649450   4.8459300  61.1015730
   2.0585140   5.7496970  59.9976640   6.4065000   2.6640220  68.1693600
   6.4237740   3.1148870  69.0135450   6.1580580   1.7645860  68.3827040
   2.6824450   7.9462520  68.9088560   3.0494580   7.4721090  69.6549900
   2.4929510   8.8204090  69.2496900   9.7593590  10.1897510  67.6166010
  10.4792710  10.6852800  67.2262120   9.5575410   9.5115400  66.9719880
   5.1412390  10.2606570  73.5035010   5.0749700   9.3402240  73.2492600
   4.5117530  10.3582010  74.2179650   7.9351920   5.9555120  60.0557560
   8.8231540   6.2672350  59.8808900   7.9057010   5.0827370  59.6638140
   3.9312510  12.1278810  60.7345730   4.2728210  12.8721040  60.2389050
   3.1025220  12.4409930  61.0970560   5.0729120  13.0827140  73.2538810
   5.0873660  12.1508100  73.0357720   4.3654220  13.1686900  73.8928580
  10.2066190   7.2666960  59.5237420  10.1229910   7.6981180  58.6733860
  10.9260380   7.7265310  59.9564240  11.2840330   9.7234480  72.6007390
  10.5588520  10.3163260  72.4036780  11.8115790   9.7158020  71.8020760
  11.2353440  14.1209220  62.2519550  10.5929600  13.4664840  62.5263270
  10.8484100  14.5264310  61.4760220   6.8139920  11.4494650  66.0991240
   7.1663740  10.8522780  65.4392610   5.9302250  11.1238880  66.2699490
   2.9003200  12.2092340  63.5061650   3.5874330  12.7561550  63.8869240
   2.1135620  12.7533070  63.5411260   2.2030410   9.2138370  63.1187010
   2.6593190  10.0243620  63.3447200   1.8518620   8.8961510  63.9505500
   4.5063020  14.7244710  70.3479310   5.1505240  14.9304090  71.0252730
   4.8692460  13.9633110  69.8950160   5.7795100  12.7277060  69.0656760
   6.4217330  12.0270220  69.1788930   6.3044450  13.5075500  68.8853650
   9.6250820  13.0125680  58.7895900   9.3988400  12.2956120  59.3820540
   9.2347020  12.7638120  57.9517650   7.5532720  13.5271960  72.2692820
   7.8888960  14.1138650  72.9470740   6.6333060  13.3964670  72.4990610
   9.2067070  10.9297620  60.4510060   8.9188770  11.3910310  61.2387940
  10.0019240  10.4695390  60.7194280   3.3821300  13.5763290  75.4380880
   3.0618170  12.8572530  75.9826570   2.7079660  14.2518360  75.5116940
   6.5974900   3.8089450  70.8017680   6.9655720   2.9884660  71.1297250
   5.7373100   3.8691340  71.2173330   9.9636930   2.7646390  61.6105240
   9.3350090   2.8692060  60.8963470   9.4688850   2.9843170  62.3999120
   4.4095070  14.4851980  59.0439220   4.5107050  14.2815970  58.1141200
   3.5096810  14.2310260  59.2487000   3.5576890   6.4629040  71.0255650
   4.0562140   6.9374860  71.6907500   3.6999840   5.5392560  71.2325680
   5.9636390   1.7683000  64.4658910   5.8404170   1.7869130  63.5168420
   6.9120950   1.8161940  64.5857310   3.0513180  17.0038300  63.7386890
   3.3054680  16.9659690  62.8166260   2.1025660  16.8771630  63.7315140
  10.7643750   2.6797000  71.8684040  10.2617350   3.4202400  72.2077850
  11.5800410   3.0681000  71.5520830   9.0565760   7.9230180  65.3145400
   8.1155900   7.9380410  65.4893090   9.3709830   7.1366140  65.7605700
  11.0591340  15.0939030  66.9899660  11.1838760  15.9170200  67.4623470
  11.9256900  14.8829760  66.6423810   7.8032150  16.2076470  74.4087190
   8.7553900  16.1234490  74.3587430   7.6560370  16.8718180  75.0820980
  10.6941350  15.5870680  59.9079100  10.4082860  15.1735820  59.0933280
  10.4960900  16.5158390  59.7879620   2.1588580  11.5803960  58.3484710
   2.0539220  10.9656310  59.0746090   1.9912800  11.0569850  57.5647720
   5.3991310  10.6423990  58.9526700   4.8501410  11.0893290  59.5969440
   6.0210570  10.1373240  59.4764370   9.4526250  11.9966090  74.8848960
  10.1935720  12.3341850  74.3816420   8.6898930  12.1658150  74.3318730
   3.5794070   8.6252520  58.0969100   4.0999730   7.9101540  57.7310250
   4.2262470   9.2638390  58.3969610   8.1271910  10.0480920  73.4204170
   8.5412930  10.2026000  74.2694590   7.1922910  10.1736140  73.5829950
   8.5994080   7.3877080  75.4243320   9.1814850   6.6329400  75.3363800
   8.7755850   7.9184520  74.6474800   2.8887140  10.0001400  71.3900100
   3.3075250  10.8434130  71.2176340   1.9695770  10.1373440  71.1606880
   5.2251040   7.7317580  72.7737940   5.3447250   7.1358720  73.5132780
   6.0845040   7.7687270  72.3539240   7.5638940   8.2854770  71.3500450
   7.0374160   8.8097390  70.7465590   7.9070280   8.9182160  71.9810180
   6.8113240   3.8904740  74.2646780   6.1228760   3.2286280  74.1996770
   7.5319260   3.4443010  74.7095240   3.5956770  17.5405620  72.7644480
   3.5215470  18.4440760  73.0716850   2.6935610  17.2217520  72.7366550
   4.1442100  16.7064130  60.3870840   5.0392890  17.0449100  60.4089600
   4.1759730  15.9843540  59.7595120  11.1236450  15.2367800  73.0937040
  10.5238440  15.2960360  72.3500960  11.2530350  14.2972780  73.2233890
  12.3637900  12.9785620  58.4306750  11.5330860  13.0462270  58.9013980
  12.5409730  13.8689740  58.1273610  11.8194360   9.7233100  60.9340950
  12.5813270  10.2929750  61.0400640  11.8348730   9.1560300  61.7049260
  12.8254330  10.5783200  65.7782880  13.1963160   9.7950520  65.3718850
  13.4656260  11.2672300  65.6000180   9.8088090  11.9619780  71.1913200
   8.9947930  12.3916940  71.4538990  10.2162290  12.5738190  70.5782250
  11.8713530  10.0167470  58.0913470  12.1462370  10.9246350  57.9632690
  11.6824270   9.9530000  59.0275460   8.2689140   3.0412320  59.3867100
   8.6874020   2.8543300  58.5463760   7.9625200   2.1891370  59.6970030
  11.7678870   7.9536460  63.0842900  11.3922470   7.1864390  62.6524190
  11.0381990   8.3359160  63.5717830  11.1578490   7.1007980  72.7182420
  10.9264580   6.8720730  71.8180370  11.4183040   8.0207530  72.6727310
   9.5966560   2.3264410  75.4962120  10.4736740   2.3347810  75.8796120
   9.6087400   1.5895250  74.8854470  11.0429830   6.1793950  66.3850140
  11.5667310   5.6856600  65.7540310  11.6289250   6.3144310  67.1297710
  11.2219550   6.2633820  69.9069690  10.2722260   6.2297360  70.0214680
  11.4032560   7.1733930  69.6719460  10.5329800   5.4367300  62.3242550
  11.0288920   5.2038170  63.1091430  10.3345870   4.5979140  61.9080190
  11.9616960   4.0728250  64.8580230  11.8516240   3.9184290  65.7962500
  12.7224550   3.5449190  64.6155640  12.8507230   1.9036170  58.0986370
  13.7756540   1.7717350  57.8904660  12.8283020   1.9828990  59.0522820
  12.9245720   2.6746830  60.7243080  12.1297220   2.6091950  61.2535990
  13.1289000   3.6097470  60.7128430   9.8664140  16.7138380  64.7181470
  10.4623210  16.3922950  64.0415890  10.1242290  16.2410200  65.5094740
  12.7336900  16.7210260  71.2692460  12.2395180  17.1179130  70.5519590
  12.1250190  16.0959470  71.6629740  10.4176350  17.3633680  68.5479200
   9.9579320  18.1149490  68.1737220   9.7888810  16.6440150  68.4894000
   3.5867570  16.5630410  68.5496310   3.8745380  16.3084710  67.6729320
   4.0990790  16.0107770  69.1401880   2.6898800   2.7207360  64.6408850
   1.8773310   2.3464250  64.3004730   3.1940440   1.9652440  64.9430040
   3.6539930  17.4846510  75.9164510   4.5807240  17.2490780  75.9600470
   3.6390360  18.3118510  75.4350540  11.8884990  17.0272080  62.9138760
  12.0637180  16.3409820  62.2699680  11.1906560  17.5519130  62.5215430
   6.3477150   7.5837310  46.6221600   6.2671200   6.6691920  46.3513310
   5.9341570   8.0804380  45.9161310   4.4795190   9.3616330  48.5030870
   3.7037290   8.8816770  48.7929440   5.1308120   8.6821980  48.3287030
   8.5002620  13.7676520  47.2830000   8.0384150  12.9963760  47.6117170
   9.3128170  13.7942590  47.7882450   4.7265930  16.0534530  46.9033990
   4.1077370  16.5092030  46.3328430   5.5817710  16.2085990  46.5023690
   3.9204180  12.0373520  48.5101030   3.8512460  11.0963460  48.3490160
   4.6824040  12.1274930  49.0823600   4.9509350   4.8443900  48.7369960
   5.3274170   3.9715780  48.6243630   4.8528860   5.1802600  47.8460400
   8.7333470   2.3394340  45.6698300   9.5543090   1.8490910  45.7123780
   8.7667550   2.9292000  46.4230140  13.0233020   4.3561090  52.2341930
  12.3185190   4.7442800  51.7157040  13.2890940   5.0511380  52.8362860
   5.5929280  10.9373770  44.2965900   4.9746550  11.4023220  43.7328620
   6.1052530  11.6301250  44.7135410   8.9694950   4.2794720  48.4425840
   8.2650520   4.5679610  49.0228950   9.3307110   5.0894830  48.0825400
  10.5857730  13.8969850  50.7053320   9.9021250  14.5668960  50.6969990
  11.1252020  14.0950500  49.9398180  12.0381870   3.7249510  48.8335050
  11.0906780   3.7588490  48.9650480  12.3631860   4.5388460  49.2184410
   8.1216470  15.7413980  49.4198500   8.1343630  15.3376270  48.5520760
   7.5691690  16.5161270  49.3159930   9.4161890  12.4630200  44.5088670
   9.3058220  11.5204530  44.6338090   9.4130140  12.8245840  45.3951430
   7.5201910  10.6443820  50.7481110   7.9370700  10.4303930  49.9134570
   8.2441730  10.9016610  51.3189730   4.9582170   8.0895520  43.8651160
   4.0311450   8.0232900  44.0939630   5.1106990   9.0275650  43.7506400
   4.9451250   4.3612520  40.8618320   4.0054920   4.5226480  40.9470780
   5.2634510   5.0798200  40.3154310  11.4664010   9.0431040  50.8397350
  10.6382640   9.1124130  50.3647480  12.0614490   9.6285350  50.3713180
   8.9879460   9.6515820  44.3686410   8.3691880   9.3135370  43.7212710
   8.9703910   9.0075580  45.0765600   8.4306020   5.8300360  51.7852220
   8.0177200   6.6554070  52.0392210   7.6981970   5.2445400  51.5928580
   9.1206120  15.8759690  52.4733200   8.6436680  16.6831880  52.2805810
   8.4367910  15.2238020  52.6259410   7.1644160   8.8902630  41.3759160
   7.6037440   8.0525060  41.2296980   7.8772580   9.5232030  41.4623300
   5.2739540  13.8298700  45.3440400   5.7135450  14.5723030  44.9295790
   5.2126430  14.0725270  46.2679360  12.7005330  15.6371630  57.5424590
  13.1765050  16.1154520  58.2213670  13.3212490  15.5689120  56.8170090
  12.1038580  12.8284480  54.7024600  12.2301640  12.5896360  53.7841780
  12.1459960  11.9969020  55.1746680   5.9655320  16.5312480  53.2719410
   6.4799990  16.4420490  54.0741840   5.1224400  16.8772180  53.5647320
   7.9409720  16.8167820  42.7003410   7.7810860  16.5270760  43.5985240
   7.7756430  16.0407950  42.1648640   7.6435850  14.3255380  41.2601410
   6.9501010  14.3232670  40.6003690   8.3858710  13.9014700  40.8295580
   7.2085780  15.9518090  45.3349900   7.6642730  15.1707470  45.6488520
   7.5478300  16.6624910  45.8791080  11.9562590   4.8816940  55.6674340
  11.3406860   5.3896610  55.1389800  11.6359010   3.9815270  55.6100280
   4.0176910   3.7208830  53.1336530   3.5556280   3.9291850  53.9456470
   3.6155020   2.9068180  52.8307200   9.0181420   4.9417780  54.2633190
   8.1675010   4.6423530  54.5842260   8.8583210   5.1859790  53.3517010
   6.1131130   6.4419530  56.3631980   6.4384540   5.6083280  56.0234210
   6.9011460   6.9648050  56.5110310   6.7519080   5.9837250  43.8573110
   6.1527970   6.7073050  43.6736730   7.2998690   5.9214030  43.0749560
   1.9620530   6.8759460  55.9242730   1.8664130   5.9354190  55.7743130
   2.8052510   7.0974530  55.5290800   5.3583950   4.6200790  45.8876390
   5.7513520   4.9372990  45.0745080   5.7200800   3.7412670  46.0020910
   3.6676120   3.3708100  57.1473250   2.9774440   3.1780300  57.7819340
   4.4108420   3.6542740  57.6797550   5.9439090   7.2106540  49.9827170
   5.2120210   7.7193350  50.3317270   5.5463430   6.3936520  49.6815950
   2.3816480   3.8860740  48.3879660   2.3852540   3.4450690  47.5384200
   3.2767600   4.2078070  48.4951480   2.4436630   4.8872820  41.3786420
   2.5649450   4.8459300  42.3272240   2.0585140   5.7496970  41.2233150
   6.4065000   2.6640220  49.3950110   6.4237740   3.1148870  50.2391960
   6.1580580   1.7645860  49.6083550   2.6824450   7.9462520  50.1345070
   3.0494580   7.4721090  50.8806410   2.4929510   8.8204090  50.4753410
   9.7593590  10.1897510  48.8422520  10.4792710  10.6852800  48.4518630
   9.5575410   9.5115400  48.1976390   5.1412390  10.2606570  54.7291520
   5.0749700   9.3402240  54.4749110   4.5117530  10.3582010  55.4436160
   7.9351920   5.9555120  41.2814070   8.8231540   6.2672350  41.1065410
   7.9057010   5.0827370  40.8894650   3.9312510  12.1278810  41.9602240
   4.2728210  12.8721040  41.4645560   3.1025220  12.4409930  42.3227070
   5.0729120  13.0827140  54.4795320   5.0873660  12.1508100  54.2614230
   4.3654220  13.1686900  55.1185090  10.2066190   7.2666960  40.7493930
  10.1229910   7.6981180  39.8990370  10.9260380   7.7265310  41.1820750
  11.2840330   9.7234480  53.8263900  10.5588520  10.3163260  53.6293290
  11.8115790   9.7158020  53.0277270  11.2353440  14.1209220  43.4776060
  10.5929600  13.4664840  43.7519780  10.8484100  14.5264310  42.7016730
   6.8139920  11.4494650  47.3247750   7.1663740  10.8522780  46.6649120
   5.9302250  11.1238880  47.4956000   2.9003200  12.2092340  44.7318160
   3.5874330  12.7561550  45.1125750   2.1135620  12.7533070  44.7667770
   2.2030410   9.2138370  44.3443520   2.6593190  10.0243620  44.5703710
   1.8518620   8.8961510  45.1762010   4.5063020  14.7244710  51.5735820
   5.1505240  14.9304090  52.2509240   4.8692460  13.9633110  51.1206670
   5.7795100  12.7277060  50.2913270   6.4217330  12.0270220  50.4045440
   6.3044450  13.5075500  50.1110160   9.6250820  13.0125680  40.0152410
   9.3988400  12.2956120  40.6077050   9.2347020  12.7638120  39.1774160
   7.5532720  13.5271960  53.4949330   7.8888960  14.1138650  54.1727250
   6.6333060  13.3964670  53.7247120   9.2067070  10.9297620  41.6766570
   8.9188770  11.3910310  42.4644450  10.0019240  10.4695390  41.9450790
   3.3821300  13.5763290  56.6637390   3.0618170  12.8572530  57.2083080
   2.7079660  14.2518360  56.7373450   6.5974900   3.8089450  52.0274190
   6.9655720   2.9884660  52.3553760   5.7373100   3.8691340  52.4429840
   9.9636930   2.7646390  42.8361750   9.3350090   2.8692060  42.1219980
   9.4688850   2.9843170  43.6255630   4.4095070  14.4851980  40.2695730
   4.5107050  14.2815970  39.3397710   3.5096810  14.2310260  40.4743510
   3.5576890   6.4629040  52.2512160   4.0562140   6.9374860  52.9164010
   3.6999840   5.5392560  52.4582190   5.9636390   1.7683000  45.6915420
   5.8404170   1.7869130  44.7424930   6.9120950   1.8161940  45.8113820
   3.0513180  17.0038300  44.9643400   3.3054680  16.9659690  44.0422770
   2.1025660  16.8771630  44.9571650  10.7643750   2.6797000  53.0940550
  10.2617350   3.4202400  53.4334360  11.5800410   3.0681000  52.7777340
   9.0565760   7.9230180  46.5401910   8.1155900   7.9380410  46.7149600
   9.3709830   7.1366140  46.9862210  11.0591340  15.0939030  48.2156170
  11.1838760  15.9170200  48.6879980  11.9256900  14.8829760  47.8680320
   6.3731780  12.4796180  57.0234290   5.7669940  12.5027780  56.2830040
   6.0685890  11.7479220  57.5601540   7.8032150  16.2076470  55.6343700
   8.7553900  16.1234490  55.5843940   7.6560370  16.8718180  56.3077490
  10.6941350  15.5870680  41.1335610  10.4082860  15.1735820  40.3189790
  10.4960900  16.5158390  41.0136130   2.1588580  11.5803960  39.5741220
   2.0539220  10.9656310  40.3002600   1.9912800  11.0569850  38.7904230
   5.3991310  10.6423990  40.1783210   4.8501410  11.0893290  40.8225950
   6.0210570  10.1373240  40.7020880   9.4526250  11.9966090  56.1105470
  10.1935720  12.3341850  55.6072930   8.6898930  12.1658150  55.5575240
   3.5794070   8.6252520  39.3225610   4.0999730   7.9101540  38.9566760
   4.2262470   9.2638390  39.6226120   8.1271910  10.0480920  54.6460680
   8.5412930  10.2026000  55.4951100   7.1922910  10.1736140  54.8086460
   8.5994080   7.3877080  56.6499830   9.1814850   6.6329400  56.5620310
   8.7755850   7.9184520  55.8731310   2.8887140  10.0001400  52.6156610
   3.3075250  10.8434130  52.4432850   1.9695770  10.1373440  52.3863390
   5.2251040   7.7317580  53.9994450   5.3447250   7.1358720  54.7389290
   6.0845040   7.7687270  53.5795750   7.5638940   8.2854770  52.5756960
   7.0374160   8.8097390  51.9722100   7.9070280   8.9182160  53.2066690
   6.8113240   3.8904740  55.4903290   6.1228760   3.2286280  55.4253280
   7.5319260   3.4443010  55.9351750   3.5956770  17.5405620  53.9900990
   3.5215470  18.4440760  54.2973360   2.6935610  17.2217520  53.9623060
   4.1442100  16.7064130  41.6127350   5.0392890  17.0449100  41.6346110
   4.1759730  15.9843540  40.9851630  11.1236450  15.2367800  54.3193550
  10.5238440  15.2960360  53.5757470  11.2530350  14.2972780  54.4490400
  12.3637900  12.9785620  39.6563260  11.5330860  13.0462270  40.1270490
  12.5409730  13.8689740  39.3530120  11.8194360   9.7233100  42.1597460
  12.5813270  10.2929750  42.2657150  11.8348730   9.1560300  42.9305770
  12.8254330  10.5783200  47.0039390  13.1963160   9.7950520  46.5975360
  13.4656260  11.2672300  46.8256690   9.8088090  11.9619780  52.4169710
   8.9947930  12.3916940  52.6795500  10.2162290  12.5738190  51.8038760
  11.8713530  10.0167470  39.3169980  12.1462370  10.9246350  39.1889200
  11.6824270   9.9530000  40.2531970   8.2689140   3.0412320  40.6123610
   8.6874020   2.8543300  39.7720270   7.9625200   2.1891370  40.9226540
  11.7678870   7.9536460  44.3099410  11.3922470   7.1864390  43.8780700
  11.0381990   8.3359160  44.7974340  11.1578490   7.1007980  53.9438930
  10.9264580   6.8720730  53.0436880  11.4183040   8.0207530  53.8983820
   9.5966560   2.3264410  56.7218630  10.4736740   2.3347810  57.1052630
   9.6087400   1.5895250  56.1110980  11.0429830   6.1793950  47.6106650
  11.5667310   5.6856600  46.9796820  11.6289250   6.3144310  48.3554220
  11.2219550   6.2633820  51.1326200  10.2722260   6.2297360  51.2471190
  11.4032560   7.1733930  50.8975970  10.5329800   5.4367300  43.5499060
  11.0288920   5.2038170  44.3347940  10.3345870   4.5979140  43.1336700
  11.9616960   4.0728250  46.0836740  11.8516240   3.9184290  47.0219010
  12.7224550   3.5449190  45.8412150  12.8507230   1.9036170  39.3242880
  13.7756540   1.7717350  39.1161170  12.8283020   1.9828990  40.2779330
  12.9245720   2.6746830  41.9499590  12.1297220   2.6091950  42.4792500
  13.1289000   3.6097470  41.9384940   9.8664140  16.7138380  45.9437980
  10.4623210  16.3922950  45.2672400  10.1242290  16.2410200  46.7351250
  12.7336900  16.7210260  52.4948970  12.2395180  17.1179130  51.7776100
  12.1250190  16.0959470  52.8886250  10.4176350  17.3633680  49.7735710
   9.9579320  18.1149490  49.3993730   9.7888810  16.6440150  49.7150510
   3.5867570  16.5630410  49.7752820   3.8745380  16.3084710  48.8985830
   4.0990790  16.0107770  50.3658390   2.6898800   2.7207360  45.8665360
   1.8773310   2.3464250  45.5261240   3.1940440   1.9652440  46.1686550
   3.6539930  17.4846510  57.1421020   4.5807240  17.2490780  57.1856980
   3.6390360  18.3118510  56.6607050  11.8884990  17.0272080  44.1395270
  12.0637180  16.3409820  43.4956190  11.1906560  17.5519130  43.7471940
  10.2217490  16.7116370  56.9662060  11.0142810  16.2165600  56.7588020
  10.5150640  17.3906510  57.5737670   6.3477150   7.5837310  27.8478110
   6.2671200   6.6691920  27.5769820   5.9341570   8.0804380  27.1417820
   4.4795190   9.3616330  29.7287380   3.7037290   8.8816770  30.0185950
   5.1308120   8.6821980  29.5543540   8.5002620  13.7676520  28.5086510
   8.0384150  12.9963760  28.8373680   9.3128170  13.7942590  29.0138960
   4.7265930  16.0534530  28.1290500   4.1077370  16.5092030  27.5584940
   5.5817710  16.2085990  27.7280200   3.9204180  12.0373520  29.7357540
   3.8512460  11.0963460  29.5746670   4.6824040  12.1274930  30.3080110
   4.9509350   4.8443900  29.9626470   5.3274170   3.9715780  29.8500140
   4.8528860   5.1802600  29.0716910   8.7333470   2.3394340  26.8954810
   9.5543090   1.8490910  26.9380290   8.7667550   2.9292000  27.6486650
  13.0233020   4.3561090  33.4598440  12.3185190   4.7442800  32.9413550
  13.2890940   5.0511380  34.0619370   5.5929280  10.9373770  25.5222410
   4.9746550  11.4023220  24.9585130   6.1052530  11.6301250  25.9391920
   8.9694950   4.2794720  29.6682350   8.2650520   4.5679610  30.2485460
   9.3307110   5.0894830  29.3081910  10.5857730  13.8969850  31.9309830
   9.9021250  14.5668960  31.9226500  11.1252020  14.0950500  31.1654690
  12.0381870   3.7249510  30.0591560  11.0906780   3.7588490  30.1906990
  12.3631860   4.5388460  30.4440920   8.1216470  15.7413980  30.6455010
   8.1343630  15.3376270  29.7777270   7.5691690  16.5161270  30.5416440
   9.4161890  12.4630200  25.7345180   9.3058220  11.5204530  25.8594600
   9.4130140  12.8245840  26.6207940   7.5201910  10.6443820  31.9737620
   7.9370700  10.4303930  31.1391080   8.2441730  10.9016610  32.5446240
   4.9582170   8.0895520  25.0907670   4.0311450   8.0232900  25.3196140
   5.1106990   9.0275650  24.9762910   4.9451250   4.3612520  22.0874830
   4.0054920   4.5226480  22.1727290   5.2634510   5.0798200  21.5410820
  11.4664010   9.0431040  32.0653860  10.6382640   9.1124130  31.5903990
  12.0614490   9.6285350  31.5969690   8.9879460   9.6515820  25.5942920
   8.3691880   9.3135370  24.9469220   8.9703910   9.0075580  26.3022110
   8.4306020   5.8300360  33.0108730   8.0177200   6.6554070  33.2648720
   7.6981970   5.2445400  32.8185090   9.1206120  15.8759690  33.6989710
   8.6436680  16.6831880  33.5062320   8.4367910  15.2238020  33.8515920
   7.1644160   8.8902630  22.6015670   7.6037440   8.0525060  22.4553490
   7.8772580   9.5232030  22.6879810   5.2739540  13.8298700  26.5696910
   5.7135450  14.5723030  26.1552300   5.2126430  14.0725270  27.4935870
  12.7005330  15.6371630  38.7681100  13.1765050  16.1154520  39.4470180
  13.3212490  15.5689120  38.0426600  12.1038580  12.8284480  35.9281110
  12.2301640  12.5896360  35.0098290  12.1459960  11.9969020  36.4003190
   5.9655320  16.5312480  34.4975920   6.4799990  16.4420490  35.2998350
   5.1224400  16.8772180  34.7903830   7.9409720  16.8167820  23.9259920
   7.7810860  16.5270760  24.8241750   7.7756430  16.0407950  23.3905150
   7.6435850  14.3255380  22.4857920   6.9501010  14.3232670  21.8260200
   8.3858710  13.9014700  22.0552090   7.2085780  15.9518090  26.5606410
   7.6642730  15.1707470  26.8745030   7.5478300  16.6624910  27.1047590
  11.9562590   4.8816940  36.8930850  11.3406860   5.3896610  36.3646310
  11.6359010   3.9815270  36.8356790   4.0176910   3.7208830  34.3593040
   3.5556280   3.9291850  35.1712980   3.6155020   2.9068180  34.0563710
   9.0181420   4.9417780  35.4889700   8.1675010   4.6423530  35.8098770
   8.8583210   5.1859790  34.5773520   6.1131130   6.4419530  37.5888490
   6.4384540   5.6083280  37.2490720   6.9011460   6.9648050  37.7366820
   6.7519080   5.9837250  25.0829620   6.1527970   6.7073050  24.8993240
   7.2998690   5.9214030  24.3006070   1.9620530   6.8759460  37.1499240
   1.8664130   5.9354190  36.9999640   2.8052510   7.0974530  36.7547310
   5.3583950   4.6200790  27.1132900   5.7513520   4.9372990  26.3001590
   5.7200800   3.7412670  27.2277420   3.6676120   3.3708100  38.3729760
   2.9774440   3.1780300  39.0075850   4.4108420   3.6542740  38.9054060
   5.9439090   7.2106540  31.2083680   5.2120210   7.7193350  31.5573780
   5.5463430   6.3936520  30.9072460   2.3816480   3.8860740  29.6136170
   2.3852540   3.4450690  28.7640710   3.2767600   4.2078070  29.7207990
   2.4436630   4.8872820  22.6042930   2.5649450   4.8459300  23.5528750
   2.0585140   5.7496970  22.4489660   6.4065000   2.6640220  30.6206620
   6.4237740   3.1148870  31.4648470   6.1580580   1.7645860  30.8340060
   2.6824450   7.9462520  31.3601580   3.0494580   7.4721090  32.1062920
   2.4929510   8.8204090  31.7009920   9.7593590  10.1897510  30.0679030
  10.4792710  10.6852800  29.6775140   9.5575410   9.5115400  29.4232900
   5.1412390  10.2606570  35.9548030   5.0749700   9.3402240  35.7005620
   4.5117530  10.3582010  36.6692670   7.9351920   5.9555120  22.5070580
   8.8231540   6.2672350  22.3321920   7.9057010   5.0827370  22.1151160
   3.9312510  12.1278810  23.1858750   4.2728210  12.8721040  22.6902070
   3.1025220  12.4409930  23.5483580   5.0729120  13.0827140  35.7051830
   5.0873660  12.1508100  35.4870740   4.3654220  13.1686900  36.3441600
  10.2066190   7.2666960  21.9750440  10.1229910   7.6981180  21.1246880
  10.9260380   7.7265310  22.4077260  11.2840330   9.7234480  35.0520410
  10.5588520  10.3163260  34.8549800  11.8115790   9.7158020  34.2533780
  11.2353440  14.1209220  24.7032570  10.5929600  13.4664840  24.9776290
  10.8484100  14.5264310  23.9273240   6.8139920  11.4494650  28.5504260
   7.1663740  10.8522780  27.8905630   5.9302250  11.1238880  28.7212510
   2.9003200  12.2092340  25.9574670   3.5874330  12.7561550  26.3382260
   2.1135620  12.7533070  25.9924280   2.2030410   9.2138370  25.5700030
   2.6593190  10.0243620  25.7960220   1.8518620   8.8961510  26.4018520
   4.5063020  14.7244710  32.7992330   5.1505240  14.9304090  33.4765750
   4.8692460  13.9633110  32.3463180   5.7795100  12.7277060  31.5169780
   6.4217330  12.0270220  31.6301950   6.3044450  13.5075500  31.3366670
   9.6250820  13.0125680  21.2408920   9.3988400  12.2956120  21.8333560
   9.2347020  12.7638120  20.4030670   7.5532720  13.5271960  34.7205840
   7.8888960  14.1138650  35.3983760   6.6333060  13.3964670  34.9503630
   9.2067070  10.9297620  22.9023080   8.9188770  11.3910310  23.6900960
  10.0019240  10.4695390  23.1707300   3.3821300  13.5763290  37.8893900
   3.0618170  12.8572530  38.4339590   2.7079660  14.2518360  37.9629960
   6.5974900   3.8089450  33.2530700   6.9655720   2.9884660  33.5810270
   5.7373100   3.8691340  33.6686350   9.9636930   2.7646390  24.0618260
   9.3350090   2.8692060  23.3476490   9.4688850   2.9843170  24.8512140
   4.4095070  14.4851980  21.4952240   4.5107050  14.2815970  20.5654220
   3.5096810  14.2310260  21.7000020   3.5576890   6.4629040  33.4768670
   4.0562140   6.9374860  34.1420520   3.6999840   5.5392560  33.6838700
   5.9636390   1.7683000  26.9171930   5.8404170   1.7869130  25.9681440
   6.9120950   1.8161940  27.0370330   3.0513180  17.0038300  26.1899910
   3.3054680  16.9659690  25.2679280   2.1025660  16.8771630  26.1828160
  10.7643750   2.6797000  34.3197060  10.2617350   3.4202400  34.6590870
  11.5800410   3.0681000  34.0033850   9.0565760   7.9230180  27.7658420
   8.1155900   7.9380410  27.9406110   9.3709830   7.1366140  28.2118720
  11.0591340  15.0939030  29.4412680  11.1838760  15.9170200  29.9136490
  11.9256900  14.8829760  29.0936830   6.3731780  12.4796180  38.2490800
   5.7669940  12.5027780  37.5086550   6.0685890  11.7479220  38.7858050
   7.8032150  16.2076470  36.8600210   8.7553900  16.1234490  36.8100450
   7.6560370  16.8718180  37.5334000  10.6941350  15.5870680  22.3592120
  10.4082860  15.1735820  21.5446300  10.4960900  16.5158390  22.2392640
   2.1588580  11.5803960  20.7997730   2.0539220  10.9656310  21.5259110
   1.9912800  11.0569850  20.0160740   5.3991310  10.6423990  21.4039720
   4.8501410  11.0893290  22.0482460   6.0210570  10.1373240  21.9277390
   9.4526250  11.9966090  37.3361980  10.1935720  12.3341850  36.8329440
   8.6898930  12.1658150  36.7831750   3.5794070   8.6252520  20.5482120
   4.0999730   7.9101540  20.1823270   4.2262470   9.2638390  20.8482630
   8.1271910  10.0480920  35.8717190   8.5412930  10.2026000  36.7207610
   7.1922910  10.1736140  36.0342970   8.5994080   7.3877080  37.8756340
   9.1814850   6.6329400  37.7876820   8.7755850   7.9184520  37.0987820
   2.8887140  10.0001400  33.8413120   3.3075250  10.8434130  33.6689360
   1.9695770  10.1373440  33.6119900   5.2251040   7.7317580  35.2250960
   5.3447250   7.1358720  35.9645800   6.0845040   7.7687270  34.8052260
   7.5638940   8.2854770  33.8013470   7.0374160   8.8097390  33.1978610
   7.9070280   8.9182160  34.4323200   6.8113240   3.8904740  36.7159800
   6.1228760   3.2286280  36.6509790   7.5319260   3.4443010  37.1608260
   3.5956770  17.5405620  35.2157500   3.5215470  18.4440760  35.5229870
   2.6935610  17.2217520  35.1879570   4.1442100  16.7064130  22.8383860
   5.0392890  17.0449100  22.8602620   4.1759730  15.9843540  22.2108140
  11.1236450  15.2367800  35.5450060  10.5238440  15.2960360  34.8013980
  11.2530350  14.2972780  35.6746910  12.3637900  12.9785620  20.8819770
  11.5330860  13.0462270  21.3527000  12.5409730  13.8689740  20.5786630
  11.8194360   9.7233100  23.3853970  12.5813270  10.2929750  23.4913660
  11.8348730   9.1560300  24.1562280  12.8254330  10.5783200  28.2295900
  13.1963160   9.7950520  27.8231870  13.4656260  11.2672300  28.0513200
   9.8088090  11.9619780  33.6426220   8.9947930  12.3916940  33.9052010
  10.2162290  12.5738190  33.0295270  11.8713530  10.0167470  20.5426490
  12.1462370  10.9246350  20.4145710  11.6824270   9.9530000  21.4788480
   8.2689140   3.0412320  21.8380120   8.6874020   2.8543300  20.9976780
   7.9625200   2.1891370  22.1483050  11.7678870   7.9536460  25.5355920
  11.3922470   7.1864390  25.1037210  11.0381990   8.3359160  26.0230850
  11.1578490   7.1007980  35.1695440  10.9264580   6.8720730  34.2693390
  11.4183040   8.0207530  35.1240330   9.5966560   2.3264410  37.9475140
  10.4736740   2.3347810  38.3309140   9.6087400   1.5895250  37.3367490
  11.0429830   6.1793950  28.8363160  11.5667310   5.6856600  28.2053330
  11.6289250   6.3144310  29.5810730  11.2219550   6.2633820  32.3582710
  10.2722260   6.2297360  32.4727700  11.4032560   7.1733930  32.1232480
  10.5329800   5.4367300  24.7755570  11.0288920   5.2038170  25.5604450
  10.3345870   4.5979140  24.3593210  11.9616960   4.0728250  27.3093250
  11.8516240   3.9184290  28.2475520  12.7224550   3.5449190  27.0668660
  12.8507230   1.9036170  20.5499390  13.7756540   1.7717350  20.3417680
  12.8283020   1.9828990  21.5035840  12.9245720   2.6746830  23.1756100
  12.1297220   2.6091950  23.7049010  13.1289000   3.6097470  23.1641450
   9.8664140  16.7138380  27.1694490  10.4623210  16.3922950  26.4928910
  10.1242290  16.2410200  27.9607760  12.7336900  16.7210260  33.7205480
  12.2395180  17.1179130  33.0032610  12.1250190  16.0959470  34.1142760
  10.4176350  17.3633680  30.9992220   9.9579320  18.1149490  30.6250240
   9.7888810  16.6440150  30.9407020   3.5867570  16.5630410  31.0009330
   3.8745380  16.3084710  30.1242340   4.0990790  16.0107770  31.5914900
   2.6898800   2.7207360  27.0921870   1.8773310   2.3464250  26.7517750
   3.1940440   1.9652440  27.3943060   3.6539930  17.4846510  38.3677530
   4.5807240  17.2490780  38.4113490   3.6390360  18.3118510  37.8863560
  11.8884990  17.0272080  25.3651780  12.0637180  16.3409820  24.7212700
  11.1906560  17.5519130  24.9728450  10.2217490  16.7116370  38.1918570
  11.0142810  16.2165600  37.9844530  10.5150640  17.3906510  38.7994180
   6.3477150   7.5837310   9.0734620   6.2671200   6.6691920   8.8026330
   5.9341570   8.0804380   8.3674330   4.4795190   9.3616330  10.9543890
   3.7037290   8.8816770  11.2442460   5.1308120   8.6821980  10.7800050
   8.5002620  13.7676520   9.7343020   8.0384150  12.9963760  10.0630190
   9.3128170  13.7942590  10.2395470   4.7265930  16.0534530   9.3547010
   4.1077370  16.5092030   8.7841450   5.5817710  16.2085990   8.9536710
   3.9204180  12.0373520  10.9614050   3.8512460  11.0963460  10.8003180
   4.6824040  12.1274930  11.5336620   4.9509350   4.8443900  11.1882980
   5.3274170   3.9715780  11.0756650   4.8528860   5.1802600  10.2973420
   8.7333470   2.3394340   8.1211320   9.5543090   1.8490910   8.1636800
   8.7667550   2.9292000   8.8743160  13.0233020   4.3561090  14.6854950
  12.3185190   4.7442800  14.1670060  13.2890940   5.0511380  15.2875880
   5.5929280  10.9373770   6.7478920   4.9746550  11.4023220   6.1841640
   6.1052530  11.6301250   7.1648430   8.9694950   4.2794720  10.8938860
   8.2650520   4.5679610  11.4741970   9.3307110   5.0894830  10.5338420
  10.5857730  13.8969850  13.1566340   9.9021250  14.5668960  13.1483010
  11.1252020  14.0950500  12.3911200  12.0381870   3.7249510  11.2848070
  11.0906780   3.7588490  11.4163500  12.3631860   4.5388460  11.6697430
   8.1216470  15.7413980  11.8711520   8.1343630  15.3376270  11.0033780
   7.5691690  16.5161270  11.7672950   9.4161890  12.4630200   6.9601690
   9.3058220  11.5204530   7.0851110   9.4130140  12.8245840   7.8464450
   7.5201910  10.6443820  13.1994130   7.9370700  10.4303930  12.3647590
   8.2441730  10.9016610  13.7702750   4.9582170   8.0895520   6.3164180
   4.0311450   8.0232900   6.5452650   5.1106990   9.0275650   6.2019420
   4.9451250   4.3612520   3.3131340   4.0054920   4.5226480   3.3983800
   5.2634510   5.0798200   2.7667330  11.4664010   9.0431040  13.2910370
  10.6382640   9.1124130  12.8160500  12.0614490   9.6285350  12.8226200
   8.9879460   9.6515820   6.8199430   8.3691880   9.3135370   6.1725730
   8.9703910   9.0075580   7.5278620   8.4306020   5.8300360  14.2365240
   8.0177200   6.6554070  14.4905230   7.6981970   5.2445400  14.0441600
   9.1206120  15.8759690  14.9246220   8.6436680  16.6831880  14.7318830
   8.4367910  15.2238020  15.0772430   7.1644160   8.8902630   3.8272180
   7.6037440   8.0525060   3.6810000   7.8772580   9.5232030   3.9136320
   5.2739540  13.8298700   7.7953420   5.7135450  14.5723030   7.3808810
   5.2126430  14.0725270   8.7192380  12.7005330  15.6371630  19.9937610
  13.1765050  16.1154520  20.6726690  13.3212490  15.5689120  19.2683110
  12.1038580  12.8284480  17.1537620  12.2301640  12.5896360  16.2354800
  12.1459960  11.9969020  17.6259700   5.9655320  16.5312480  15.7232430
   6.4799990  16.4420490  16.5254860   5.1224400  16.8772180  16.0160340
   7.9409720  16.8167820   5.1516430   7.7810860  16.5270760   6.0498260
   7.7756430  16.0407950   4.6161660   7.6435850  14.3255380   3.7114430
   6.9501010  14.3232670   3.0516710   8.3858710  13.9014700   3.2808600
   7.2085780  15.9518090   7.7862920   7.6642730  15.1707470   8.1001540
   7.5478300  16.6624910   8.3304100  11.9562590   4.8816940  18.1187360
  11.3406860   5.3896610  17.5902820  11.6359010   3.9815270  18.0613300
   4.0176910   3.7208830  15.5849550   3.5556280   3.9291850  16.3969490
   3.6155020   2.9068180  15.2820220   9.0181420   4.9417780  16.7146210
   8.1675010   4.6423530  17.0355280   8.8583210   5.1859790  15.8030030
   6.1131130   6.4419530  18.8145000   6.4384540   5.6083280  18.4747230
   6.9011460   6.9648050  18.9623330   6.7519080   5.9837250   6.3086130
   6.1527970   6.7073050   6.1249750   7.2998690   5.9214030   5.5262580
   1.9620530   6.8759460  18.3755750   1.8664130   5.9354190  18.2256150
   2.8052510   7.0974530  17.9803820   5.3583950   4.6200790   8.3389410
   5.7513520   4.9372990   7.5258100   5.7200800   3.7412670   8.4533930
   3.6676120   3.3708100  19.5986270   2.9774440   3.1780300  20.2332360
   4.4108420   3.6542740  20.1310570   5.9439090   7.2106540  12.4340190
   5.2120210   7.7193350  12.7830290   5.5463430   6.3936520  12.1328970
   2.3816480   3.8860740  10.8392680   2.3852540   3.4450690   9.9897220
   3.2767600   4.2078070  10.9464500   2.4436630   4.8872820   3.8299440
   2.5649450   4.8459300   4.7785260   2.0585140   5.7496970   3.6746170
   6.4065000   2.6640220  11.8463130   6.4237740   3.1148870  12.6904980
   6.1580580   1.7645860  12.0596570   2.6824450   7.9462520  12.5858090
   3.0494580   7.4721090  13.3319430   2.4929510   8.8204090  12.9266430
   9.7593590  10.1897510  11.2935540  10.4792710  10.6852800  10.9031650
   9.5575410   9.5115400  10.6489410   5.1412390  10.2606570  17.1804540
   5.0749700   9.3402240  16.9262130   4.5117530  10.3582010  17.8949180
   7.9351920   5.9555120   3.7327090   8.8231540   6.2672350   3.5578430
   7.9057010   5.0827370   3.3407670   3.9312510  12.1278810   4.4115260
   4.2728210  12.8721040   3.9158580   3.1025220  12.4409930   4.7740090
   5.0729120  13.0827140  16.9308340   5.0873660  12.1508100  16.7127250
   4.3654220  13.1686900  17.5698110  10.2066190   7.2666960   3.2006950
  10.1229910   7.6981180   2.3503390  10.9260380   7.7265310   3.6333770
  11.2840330   9.7234480  16.2776920  10.5588520  10.3163260  16.0806310
  11.8115790   9.7158020  15.4790290  11.2353440  14.1209220   5.9289080
  10.5929600  13.4664840   6.2032800  10.8484100  14.5264310   5.1529750
   6.8139920  11.4494650   9.7760770   7.1663740  10.8522780   9.1162140
   5.9302250  11.1238880   9.9469020   2.9003200  12.2092340   7.1831180
   3.5874330  12.7561550   7.5638770   2.1135620  12.7533070   7.2180790
   2.2030410   9.2138370   6.7956540   2.6593190  10.0243620   7.0216730
   1.8518620   8.8961510   7.6275030   4.5063020  14.7244710  14.0248840
   5.1505240  14.9304090  14.7022260   4.8692460  13.9633110  13.5719690
   5.7795100  12.7277060  12.7426290   6.4217330  12.0270220  12.8558460
   6.3044450  13.5075500  12.5623180   9.6250820  13.0125680   2.4665430
   9.3988400  12.2956120   3.0590070   9.2347020  12.7638120   1.6287180
   7.5532720  13.5271960  15.9462350   7.8888960  14.1138650  16.6240270
   6.6333060  13.3964670  16.1760140   9.2067070  10.9297620   4.1279590
   8.9188770  11.3910310   4.9157470  10.0019240  10.4695390   4.3963810
   3.3821300  13.5763290  19.1150410   3.0618170  12.8572530  19.6596100
   2.7079660  14.2518360  19.1886470   6.5974900   3.8089450  14.4787210
   6.9655720   2.9884660  14.8066780   5.7373100   3.8691340  14.8942860
   9.9636930   2.7646390   5.2874770   9.3350090   2.8692060   4.5733000
   9.4688850   2.9843170   6.0768650   4.4095070  14.4851980   2.7208750
   4.5107050  14.2815970   1.7910730   3.5096810  14.2310260   2.9256530
   3.5576890   6.4629040  14.7025180   4.0562140   6.9374860  15.3677030
   3.6999840   5.5392560  14.9095210   5.9636390   1.7683000   8.1428440
   5.8404170   1.7869130   7.1937950   6.9120950   1.8161940   8.2626840
   3.0513180  17.0038300   7.4156420   3.3054680  16.9659690   6.4935790
   2.1025660  16.8771630   7.4084670  10.7643750   2.6797000  15.5453570
  10.2617350   3.4202400  15.8847380  11.5800410   3.0681000  15.2290360
   9.0565760   7.9230180   8.9914930   8.1155900   7.9380410   9.1662620
   9.3709830   7.1366140   9.4375230  11.0591340  15.0939030  10.6669190
  11.1838760  15.9170200  11.1393000  11.9256900  14.8829760  10.3193340
   6.3731780  12.4796180  19.4747310   5.7669940  12.5027780  18.7343060
   6.0685890  11.7479220  20.0114560   7.8032150  16.2076470  18.0856720
   8.7553900  16.1234490  18.0356960   7.6560370  16.8718180  18.7590510
  10.6941350  15.5870680   3.5848630  10.4082860  15.1735820   2.7702810
  10.4960900  16.5158390   3.4649150   5.3991310  10.6423990   2.6296230
   4.8501410  11.0893290   3.2738970   6.0210570  10.1373240   3.1533900
   9.4526250  11.9966090  18.5618490  10.1935720  12.3341850  18.0585950
   8.6898930  12.1658150  18.0088260   8.1271910  10.0480920  17.0973700
   8.5412930  10.2026000  17.9464120   7.1922910  10.1736140  17.2599480
   8.5994080   7.3877080  19.1012850   9.1814850   6.6329400  19.0133330
   8.7755850   7.9184520  18.3244330   2.8887140  10.0001400  15.0669630
   3.3075250  10.8434130  14.8945870   1.9695770  10.1373440  14.8376410
   5.2251040   7.7317580  16.4507470   5.3447250   7.1358720  17.1902310
   6.0845040   7.7687270  16.0308770   7.5638940   8.2854770  15.0269980
   7.0374160   8.8097390  14.4235120   7.9070280   8.9182160  15.6579710
   6.8113240   3.8904740  17.9416310   6.1228760   3.2286280  17.8766300
   7.5319260   3.4443010  18.3864770   3.5956770  17.5405620  16.4414010
   3.5215470  18.4440760  16.7486380   2.6935610  17.2217520  16.4136080
   4.1442100  16.7064130   4.0640370   5.0392890  17.0449100   4.0859130
   4.1759730  15.9843540   3.4364650  11.1236450  15.2367800  16.7706570
  10.5238440  15.2960360  16.0270490  11.2530350  14.2972780  16.9003420
  12.3637900  12.9785620   2.1076280  11.5330860  13.0462270   2.5783510
  12.5409730  13.8689740   1.8043140  11.8194360   9.7233100   4.6110480
  12.5813270  10.2929750   4.7170170  11.8348730   9.1560300   5.3818790
  12.8254330  10.5783200   9.4552410  13.1963160   9.7950520   9.0488380
  13.4656260  11.2672300   9.2769710   9.8088090  11.9619780  14.8682730
   8.9947930  12.3916940  15.1308520  10.2162290  12.5738190  14.2551780
  11.8713530  10.0167470   1.7683000  12.1462370  10.9246350   1.6402220
  11.6824270   9.9530000   2.7044990   8.2689140   3.0412320   3.0636630
   8.6874020   2.8543300   2.2233290   7.9625200   2.1891370   3.3739560
  11.7678870   7.9536460   6.7612430  11.3922470   7.1864390   6.3293720
  11.0381990   8.3359160   7.2487360  11.1578490   7.1007980  16.3951950
  10.9264580   6.8720730  15.4949900  11.4183040   8.0207530  16.3496840
   9.5966560   2.3264410  19.1731650  10.4736740   2.3347810  19.5565650
   9.6087400   1.5895250  18.5624000  11.0429830   6.1793950  10.0619670
  11.5667310   5.6856600   9.4309840  11.6289250   6.3144310  10.8067240
  11.2219550   6.2633820  13.5839220  10.2722260   6.2297360  13.6984210
  11.4032560   7.1733930  13.3488990  10.5329800   5.4367300   6.0012080
  11.0288920   5.2038170   6.7860960  10.3345870   4.5979140   5.5849720
  11.9616960   4.0728250   8.5349760  11.8516240   3.9184290   9.4732030
  12.7224550   3.5449190   8.2925170  12.8507230   1.9036170   1.7755900
  13.7756540   1.7717350   1.5674190  12.8283020   1.9828990   2.7292350
  12.9245720   2.6746830   4.4012610  12.1297220   2.6091950   4.9305520
  13.1289000   3.6097470   4.3897960   9.8664140  16.7138380   8.3951000
  10.4623210  16.3922950   7.7185420  10.1242290  16.2410200   9.1864270
  12.7336900  16.7210260  14.9461990  12.2395180  17.1179130  14.2289120
  12.1250190  16.0959470  15.3399270  10.4176350  17.3633680  12.2248730
   9.9579320  18.1149490  11.8506750   9.7888810  16.6440150  12.1663530
   3.5867570  16.5630410  12.2265840   3.8745380  16.3084710  11.3498850
   4.0990790  16.0107770  12.8171410   2.6898800   2.7207360   8.3178380
   1.8773310   2.3464250   7.9774260   3.1940440   1.9652440   8.6199570
   3.6539930  17.4846510  19.5934040   4.5807240  17.2490780  19.6370000
   3.6390360  18.3118510  19.1120070  11.8884990  17.0272080   6.5908290
  12.0637180  16.3409820   5.9469210  11.1906560  17.5519130   6.1984960
  10.2217490  16.7116370  19.4175080  11.0142810  16.2165600  19.2101040
  10.5150640  17.3906510  20.0250690
 119.6347470  92.1024760  77.6847510  90.0000000  90.0000000  90.0000000
