AQ4
  5267
  29.1130000  -3.4580000  53.1250000  28.7590000  -2.2160000  53.2820000
  28.3300000  -0.9890000  53.4470000  26.9120000  -0.7500000  53.5200000
  26.4110000   0.5050000  53.6240000  27.2740000   1.6610000  53.5350000
  28.6140000   1.5110000  53.5060000  29.3260000   0.1620000  53.6200000
  25.0330000   0.7230000  53.8060000  24.6650000   1.6420000  53.5210000
  24.1460000  -0.1590000  54.4270000  22.7410000  -0.0070000  54.2380000
  22.1440000   0.9720000  53.4050000  21.9220000  -0.9180000  54.9300000
  20.7680000   1.0170000  53.2580000  19.9540000   0.0610000  53.9260000
  20.5250000  -0.8690000  54.7710000  22.4870000  -1.8760000  55.7360000
  23.7840000  -1.9320000  55.8440000  24.6380000  -1.0880000  55.2130000
  20.1850000   2.0050000  52.4730000  18.7780000   2.0000000  52.0760000
  18.4210000   3.4310000  51.6300000  17.0760000   3.6940000  52.0260000
  16.4850000   4.8050000  51.3710000  18.5840000  -0.0380000  53.7830000
  17.7910000  -1.1300000  53.2480000  17.9810000  -2.2830000  54.2440000
  17.7250000  -3.4630000  53.5030000  16.6940000  -4.2610000  54.0610000
  26.2260000  -1.5970000  53.4910000  22.7700000   1.6920000  52.8780000
  19.8910000  -1.5680000  55.3170000  24.2100000  -2.7060000  56.4820000
  18.6260000   1.3040000  51.2510000  18.1540000   1.7060000  52.9200000
  19.0930000   4.1450000  52.1060000  18.5100000   3.5140000  50.5470000
  15.4640000   4.9370000  51.7280000  16.4730000   4.6290000  50.2950000
  17.0630000   5.7040000  51.5860000  16.7400000  -0.8460000  53.1860000
  18.1500000  -1.4150000  52.2590000  19.0000000  -2.2890000  54.6310000
  17.2780000  -2.1920000  55.0720000  16.5480000  -5.1490000  53.4460000
  15.7680000  -3.6870000  54.0950000  16.9730000  -4.5610000  55.0710000
  29.3830000  -4.4070000  53.0050000  30.3370000   0.0440000  53.7900000
  29.1940000   2.3580000  53.4000000  26.8630000   2.6070000  53.4930000
  55.0020000   8.4510000  68.5200000  55.9690000   8.5460000  68.7940000
  54.7230000   9.2610000  67.9860000  54.8920000   7.6210000  67.9550000
  54.1700000   8.3430000  69.7080000  54.4880000   7.4700000  70.2780000
  54.3060000   9.2410000  70.3110000  52.6940000   8.1970000  69.3810000
  51.8790000   9.0470000  69.7510000  52.3610000   7.1040000  68.6920000
  53.0960000   6.4570000  68.4440000  50.9970000   6.7870000  68.2750000
  50.3150000   7.4240000  68.8370000  50.8530000   7.0520000  66.7780000
  51.8420000   6.9940000  66.3240000  50.2130000   6.2780000  66.3540000
  50.2540000   8.4010000  66.4390000  50.3440000   8.5660000  65.3650000
  50.8060000   9.1750000  66.9730000  48.7900000   8.4880000  66.8270000
  48.0650000   7.4790000  66.6810000  48.3580000   9.5630000  67.2860000
  50.6270000   5.3270000  68.5850000  51.4410000   4.4130000  68.4050000
  49.3900000   5.1110000  69.0230000  48.7600000   5.8950000  69.1190000
  48.9150000   3.7700000  69.3700000  49.7160000   3.3220000  69.9590000
  47.6190000   3.8680000  70.1890000  47.7920000   4.4850000  71.0710000
  46.8360000   4.3180000  69.5780000  47.3090000   2.8700000  70.4990000
  48.7050000   2.8280000  68.1740000  48.0670000   3.1850000  67.1860000
  49.2640000   1.6140000  68.2400000  50.1640000   1.0560000  69.2590000
  51.1960000   1.3660000  69.0930000  49.8560000   1.3430000  70.2640000
  49.9890000  -0.4210000  69.0300000  50.8240000  -0.9850000  69.4460000
  49.0560000  -0.7790000  69.4660000  49.9610000  -0.5180000  67.5590000
  49.5170000  -1.4610000  67.2400000  50.9650000  -0.4310000  67.1450000
  49.0910000   0.6670000  67.1340000  49.3730000   1.0740000  66.1630000
  47.6330000   0.2630000  66.9970000  46.9790000  -0.0160000  67.9900000
  47.1280000   0.2690000  65.7670000  47.7270000   0.5340000  64.9980000
  45.7390000  -0.0930000  65.4840000  45.0780000   0.1930000  66.3020000
  45.2570000   0.6570000  64.2340000  45.9190000   0.4090000  63.4040000
  45.3080000   1.7280000  64.4310000  43.8370000   0.3060000  63.8400000
  43.1880000  -0.5460000  64.4620000  43.3560000   0.9360000  62.7610000
  42.4280000   0.7230000  62.4240000  43.9210000   1.6240000  62.2850000
  45.6740000  -1.6100000  65.3110000  45.9540000  -2.1500000  64.2420000
  45.2840000  -2.2940000  66.3750000  45.0150000  -1.7980000  67.2130000
  45.2360000  -3.7430000  66.3570000  45.9520000  -4.0460000  65.5930000
  45.6210000  -4.2780000  67.7150000  44.9100000  -3.9090000  68.4540000
  45.5850000  -5.3670000  67.6880000  47.0140000  -3.8440000  68.1160000
  47.0280000  -2.7590000  68.2220000  47.7140000  -4.1420000  67.3360000
  47.4410000  -4.4650000  69.4150000  47.6520000  -5.6800000  69.4950000
  47.5660000  -3.6410000  70.4500000  47.8450000  -4.0010000  71.3520000
  47.3820000  -2.6540000  70.3350000  43.9310000  -4.3420000  65.9200000
  43.6300000  -5.5000000  66.2390000  43.1660000  -3.5690000  65.1620000
  43.4700000  -2.6370000  64.9190000  41.8980000  -4.0650000  64.6850000
  41.2850000  -4.3600000  65.5370000  41.1850000  -2.9770000  63.9130000
  41.0230000  -2.1170000  64.5630000  41.7940000  -2.6780000  63.0600000
  40.2240000  -3.3520000  63.5610000  42.1160000  -5.2870000  63.7890000
  43.1220000  -5.3900000  63.0800000  41.1420000  -6.1880000  63.8180000
  40.3560000  -6.0200000  64.4290000  41.1430000  -7.4000000  63.0220000
  42.1840000  -7.6030000  62.7690000  40.5310000  -8.5460000  63.8240000
  39.8600000  -8.1150000  64.5670000  39.9600000  -9.1690000  63.1360000
  41.5270000  -9.4430000  64.5550000  42.0640000 -10.0600000  63.8350000
  42.5430000  -8.6000000  65.2840000  43.0750000  -7.9720000  64.5690000
  42.0350000  -7.9690000  66.0140000  43.2530000  -9.2490000  65.7960000
  40.7810000 -10.3640000  65.5060000  40.2360000  -9.7670000  66.2370000
  40.0790000 -10.9770000  64.9420000  41.4930000 -11.0080000  66.0220000
  40.3550000  -7.2570000  61.7270000  39.1750000  -6.9410000  61.7670000
  41.0020000  -7.4810000  60.5800000  41.9890000  -7.6940000  60.5970000
  40.2970000  -7.4220000  59.2970000  39.4130000  -6.7870000  59.3510000
  41.1810000  -6.8260000  58.2060000  41.4060000  -5.7960000  58.4820000
  42.1050000  -7.4030000  58.1710000  40.5790000  -6.8150000  56.7950000
  40.1950000  -7.8090000  56.5660000  39.4030000  -5.8200000  56.7000000
  38.6310000  -6.1010000  57.4160000  39.7590000  -4.8140000  56.9250000
  38.9890000  -5.8420000  55.6920000  41.6710000  -6.4280000  55.7950000
  42.0470000  -5.4330000  56.0340000  42.4870000  -7.1480000  55.8520000
  41.2570000  -6.4270000  54.7870000  39.9550000  -8.8810000  58.9730000
  40.8330000  -9.7390000  58.9330000  38.6740000  -9.1660000  58.7940000
  37.9910000  -8.4240000  58.8490000  38.2300000 -10.5190000  58.5210000
  39.0260000 -11.2100000  58.8010000  36.9790000 -10.8040000  59.3460000
  37.1710000 -10.4780000  60.3680000  36.1610000 -10.2190000  58.9260000
  36.5400000 -12.2460000  59.3950000  36.9760000 -12.7750000  58.5480000
  35.4530000 -12.2850000  59.3270000  36.9780000 -12.9350000  60.6840000
  36.6270000 -12.3510000  61.5350000  38.0660000 -12.9900000  60.7050000
  36.4310000 -14.2900000  60.7780000  37.0330000 -15.0590000  60.5200000
  35.1940000 -14.5790000  61.1800000  34.3590000 -13.6110000  61.5440000
  34.6720000 -12.6510000  61.5510000  33.4120000 -13.8360000  61.8140000
  34.7740000 -15.8370000  61.1740000  35.3920000 -16.5740000  60.8650000
  33.8370000 -16.0580000  61.4780000  37.9560000 -10.7400000  57.0340000
  37.2620000  -9.9450000  56.3850000  38.5590000 -11.7950000  56.4950000
  39.1580000 -12.3620000  57.0780000  38.3890000 -12.1640000  55.1000000
  38.0910000 -11.3030000  54.5020000  39.7050000 -12.6920000  54.4780000
  39.9360000 -13.6510000  54.9430000  39.5410000 -12.8610000  52.9720000
  38.7280000 -13.5590000  52.7710000  39.3110000 -11.8960000  52.5210000
  40.4670000 -13.2490000  52.5470000  40.8470000 -11.7060000  54.7260000
  40.8730000 -11.4790000  55.7920000  41.7800000 -12.1880000  54.4340000
  40.7340000 -10.4000000  53.9690000  40.7340000 -10.6000000  52.8970000
  39.8060000  -9.8990000  54.2450000  41.5810000  -9.7610000  54.2190000
  37.3510000 -13.2700000  55.1130000  37.5440000 -14.3010000  55.7500000
  36.2360000 -13.0260000  54.4360000  36.1550000 -12.1510000  53.9390000
  35.1210000 -13.9660000  54.3780000  35.2990000 -14.7360000  55.1280000
  33.8080000 -13.2210000  54.6520000  33.8770000 -12.2940000  54.0820000
  33.0250000 -13.8500000  54.2290000  33.2950000 -12.8090000  56.0390000
  32.7830000 -13.6720000  56.4660000  34.3730000 -12.4600000  56.9920000
  35.0510000 -13.3060000  57.0990000  34.9240000 -11.5980000  56.6170000
  33.9370000 -12.2190000  57.9610000  32.3530000 -11.6330000  55.8750000
  32.8950000 -10.7900000  55.4470000  31.5340000 -11.9130000  55.2120000
  31.9520000 -11.3500000  56.8480000  35.0150000 -14.6170000  53.0150000
  35.0840000 -13.9330000  51.9880000  34.7890000 -15.9280000  53.0080000
  34.7130000 -16.4190000  53.8870000  34.6480000 -16.6780000  51.7560000
  35.4740000 -16.4140000  51.0950000  34.6930000 -18.1850000  52.0300000
  34.0630000 -18.3940000  52.8950000  34.2960000 -18.7030000  51.1570000
  36.0850000 -18.7250000  52.3120000  36.6550000 -18.7300000  51.3830000
  36.5750000 -18.0730000  53.0350000  36.0480000 -20.1460000  52.8750000
  36.9310000 -20.6840000  52.5300000  35.1520000 -20.6460000  52.5080000
  36.0290000 -20.1610000  54.4120000  35.8510000 -21.1840000  54.7430000
  35.2130000 -19.5230000  54.7510000  37.3080000 -19.6730000  55.0440000
  38.0760000 -20.2540000  54.7400000  37.4780000 -18.7170000  54.7650000
  37.2260000 -19.7210000  56.0500000  33.3270000 -16.3210000  51.0870000
  32.3110000 -16.2170000  51.7610000  33.3520000 -16.1130000  49.7740000
  34.2310000 -16.1930000  49.2820000  32.1440000 -15.7720000  49.0190000
  31.7310000 -14.8790000  49.4880000  32.4620000 -15.4640000  47.5490000
  33.2110000 -14.6730000  47.5130000  32.8620000 -16.3640000  47.0830000
  31.2350000 -15.0110000  46.7630000  30.9520000 -14.0180000  47.1130000
  30.4240000 -15.7110000  46.9610000  31.4520000 -14.9440000  45.2600000
  32.0260000 -15.8960000  44.6860000  31.0110000 -13.9450000  44.6450000
  31.1130000 -16.8920000  49.0790000  29.9400000 -16.6630000  48.8000000
  31.5590000 -18.1000000  49.4190000  32.5430000 -18.2240000  49.6100000
  30.6650000 -19.2520000  49.5240000  30.0090000 -19.2160000  48.6540000
  31.4570000 -20.5820000  49.5330000  30.7540000 -21.3980000  49.7010000
  32.1570000 -20.7970000  48.2030000  31.4180000 -20.8150000  47.4020000
  32.8620000 -19.9840000  48.0280000  32.6940000 -21.7460000  48.2240000
  32.4340000 -20.5600000  50.5810000  32.8940000 -21.4030000  50.5670000
  29.8470000 -19.1930000  50.8060000  28.8150000 -19.8560000  50.9240000
  30.3250000 -18.4130000  51.7730000  31.1790000 -17.8990000  51.6110000
  29.6550000 -18.2790000  53.0520000  29.2390000 -19.2630000  53.2690000
  30.6550000 -17.8750000  54.1280000  31.2760000 -17.0720000  53.7300000
  30.0970000 -17.5090000  54.9900000  31.5710000 -18.9910000  54.5980000
  32.2180000 -19.2830000  53.7710000  30.9590000 -19.8420000  54.8990000
  32.4460000 -18.5730000  55.7820000  32.7550000 -17.3570000  55.9110000
  32.8170000 -19.4670000  56.5850000  28.4550000 -17.3230000  53.0520000
  27.7140000 -17.2400000  54.0340000  28.2600000 -16.5820000  51.9730000
  28.8910000 -16.6410000  51.1870000  27.1240000 -15.6860000  51.9430000
  26.4620000 -16.0630000  52.7230000  27.5020000 -14.2420000  52.3200000
  26.6100000 -13.6230000  52.2270000  27.8390000 -14.2400000  53.3570000
  28.5800000 -13.6340000  51.4790000  28.2870000 -13.0960000  50.2290000
  27.2830000 -13.1740000  49.8390000  29.2740000 -12.4550000  49.4690000
  29.0310000 -12.0400000  48.5020000  30.5700000 -12.3560000  49.9670000
  31.3380000 -11.8640000  49.3890000  30.8740000 -12.9000000  51.2260000
  31.8770000 -12.8270000  51.6190000  29.8780000 -13.5340000  51.9680000
  30.1180000 -13.9530000  52.9340000  26.3020000 -15.7500000  50.6820000
  26.8240000 -15.8150000  49.5810000  24.9910000 -15.7650000  50.8760000
  24.6400000 -15.7180000  51.8220000  24.0390000 -15.8470000  49.7820000
  24.5820000 -16.1560000  48.8890000  22.9540000 -16.8800000  50.1390000
  22.4740000 -16.5690000  51.0670000  22.2170000 -16.8960000  49.3360000
  23.4980000 -18.3070000  50.3280000  23.7570000 -18.7130000  49.3500000
  24.3920000 -18.2590000  50.9500000  22.4860000 -19.2480000  50.9960000
  21.5650000 -19.2460000  50.4130000  22.2790000 -18.8860000  52.0030000
  23.0150000 -20.6880000  51.0850000  23.0480000 -21.1080000  50.0800000
  22.3300000 -21.2710000  51.7000000  24.3880000 -20.7760000  51.6840000
  25.0350000 -20.2390000  51.1240000  24.3700000 -20.4060000  52.6240000
  24.6840000 -21.7410000  51.7080000  23.3960000 -14.5000000  49.4590000
  22.5550000 -14.0320000  50.2280000  23.8120000 -13.8630000  48.3570000
  24.5530000 -14.2660000  47.8010000  23.2100000 -12.5860000  47.9410000
  23.3690000 -11.8370000  48.7170000  23.8290000 -12.0450000  46.6530000
  23.7550000 -12.8230000  45.8930000  23.2490000 -11.1760000  46.3410000
  25.2830000 -11.6250000  46.7520000  25.3930000 -10.9000000  47.5580000
  25.8960000 -12.5010000  46.9650000  25.7450000 -10.9940000  45.4400000
  25.1890000 -10.0700000  45.2810000  25.5370000 -11.6880000  44.6260000
  27.2320000 -10.6740000  45.4400000  27.7910000 -11.5970000  45.5930000
  27.4440000  -9.9820000  46.2550000  27.6670000 -10.0520000  44.1510000
  27.4750000 -10.6870000  43.3890000  27.1620000  -9.1890000  44.0060000
  28.6580000  -9.8600000  44.1870000  21.7400000 -12.8850000  47.6740000
  21.3820000 -14.0310000  47.3900000  20.8900000 -11.8670000  47.7350000
  21.2300000 -10.9340000  47.9220000  19.4660000 -12.0980000  47.5320000
  19.4110000 -12.9590000  46.8660000  18.7580000 -12.4500000  48.8910000
  19.1650000 -11.8270000  49.6870000  17.2570000 -12.1300000  48.8330000
  17.1190000 -11.0710000  48.6150000  16.7880000 -12.7260000  48.0500000
  16.7980000 -12.3660000  49.7930000  19.0470000 -13.9250000  49.2570000
  18.7030000 -14.5450000  48.4290000  20.1260000 -14.0330000  49.3670000
  18.3970000 -14.4530000  50.5310000  18.7510000 -13.8760000  51.3850000
  17.3140000 -14.3590000  50.4520000  18.6620000 -15.5020000  50.6660000
  18.7250000 -11.0020000  46.7720000  17.7070000 -11.2720000  46.1340000
  19.2400000  -9.7780000  46.8170000  20.0820000  -9.6110000  47.3500000
  18.6070000  -8.6720000  46.1080000  18.5560000  -8.9720000  45.0610000
  17.1880000  -8.4170000  46.6340000  16.6500000  -9.3650000  46.6460000
  17.2620000  -8.0280000  47.6500000  16.3890000  -7.4170000  45.7890000
  16.8570000  -6.4360000  45.8770000  16.4170000  -7.7410000  44.7490000
  14.9250000  -7.3000000  46.2250000  14.4840000  -8.2970000  46.2480000
  14.3910000  -6.6840000  45.5020000  14.7870000  -6.6410000  47.6020000
  15.3710000  -5.7150000  47.6060000  15.2060000  -7.3080000  48.3600000
  13.3680000  -6.3360000  47.9060000  13.0130000  -5.6640000  47.2370000
  12.8040000  -7.1750000  47.8500000  13.2750000  -5.9370000  48.8310000
  19.4160000  -7.3910000  46.1870000  20.1060000  -7.1580000  47.1790000
  19.4250000  -6.6470000  45.0900000  18.9220000  -6.9650000  44.2730000
  20.1300000  -5.3580000  45.0410000  21.0920000  -5.4650000  45.5420000
  20.4330000  -4.9670000  43.5780000  21.1420000  -5.6860000  43.1460000
  19.1550000  -5.0060000  42.7420000  18.7300000  -6.0090000  42.7730000
  18.4380000  -4.2950000  43.1530000  19.3810000  -4.7390000  41.7100000
  21.0850000  -3.5870000  43.4830000  20.3760000  -2.8040000  43.7510000
  21.9560000  -3.5390000  44.1370000  21.4220000  -3.4350000  42.4600000
  19.2980000  -4.3180000  45.8230000  18.0840000  -4.2080000  45.6490000
  19.9550000  -3.5950000  46.7360000  20.9640000  -3.7060000  46.8050000
  19.3580000  -2.5040000  47.5070000  18.3040000  -2.7150000  47.6850000
  20.0840000  -2.3730000  48.8580000  21.1540000  -2.2830000  48.6730000
  19.7600000  -1.4510000  49.3430000  19.8440000  -3.5460000  49.8260000
  20.1090000  -4.4850000  49.3420000  20.7290000  -3.3620000  51.0600000
  21.7750000  -3.3710000  50.7660000  20.5030000  -2.4130000  51.5420000
  20.5750000  -4.1690000  51.7730000  18.3830000  -3.6010000  50.2860000
  18.0850000  -2.6310000  50.6800000  17.7390000  -3.8760000  49.4520000
  18.2670000  -4.3470000  51.0690000  19.4180000  -1.1840000  46.7300000
  18.4560000  -0.4190000  46.7770000  20.5110000  -0.9510000  45.9850000
  21.2740000  -1.6170000  46.0290000  20.6600000   0.1810000  45.0680000
  19.7740000   0.2370000  44.4340000  20.7280000   1.1070000  45.6390000
  21.9070000   0.0740000  44.1830000  22.9200000  -0.4860000  44.6060000
  21.8320000   0.6440000  42.9690000  20.9690000   1.1040000  42.7130000
  22.9190000   0.6510000  41.9700000  23.7910000   0.1830000  42.4130000
  22.5270000  -0.1170000  40.6970000  23.3720000  -0.1160000  40.0080000
  21.6820000   0.3940000  40.2360000  22.1570000  -1.4620000  40.9640000
  21.4050000  -1.4430000  41.5600000  23.3650000   2.0630000  41.5880000
  23.2070000   2.4760000  40.4390000  23.8530000   2.8280000  42.5690000
  24.0030000   2.4110000  43.4760000  24.2390000   4.2240000  42.3710000
  23.4280000   4.7430000  41.8590000  24.3690000   4.6950000  43.3430000
  25.5220000   4.4250000  41.5530000  26.1330000   3.4810000  41.0520000
  25.9380000   5.6880000  41.4680000  25.3780000   6.4120000  41.8960000
  27.1720000   6.0710000  40.7810000  27.2990000   5.4360000  39.9050000
  27.0880000   7.5320000  40.3150000  26.2380000   7.6510000  39.6430000
  26.9600000   8.1830000  41.1800000  28.0060000   7.8000000  39.7910000
  28.3750000   5.8700000  41.7050000  29.1020000   6.8140000  42.0340000
  28.5630000   4.6220000  42.1210000  27.9220000   3.9090000  41.8040000
  29.6500000   4.2300000  43.0140000  30.5740000   4.7140000  42.6960000
  29.3430000   4.6660000  44.4550000  30.1640000   4.3360000  45.0930000
  29.3460000   5.7550000  44.4920000  28.0450000   4.1450000  45.0490000
  27.9880000   2.8480000  45.5980000  28.8640000   2.2140000  45.5890000
  26.7910000   2.3710000  46.1580000  26.7540000   1.3740000  46.5700000
  25.6520000   3.1970000  46.1940000  24.7410000   2.8450000  46.6540000
  25.7100000   4.4960000  45.6600000  24.8410000   5.1370000  45.7120000
  26.9020000   4.9680000  45.0820000  26.9490000   5.9720000  44.6840000
  29.8020000   2.7130000  42.9600000  30.8290000   2.1640000  43.3540000
  28.7580000   2.0510000  42.4730000  27.9480000   2.5710000  42.1670000
  28.7460000   0.6040000  42.3680000  28.9670000   0.3050000  41.3430000
  29.4910000   0.1780000  43.0390000  27.3640000   0.1200000  42.7590000
  26.3600000   0.6960000  42.3420000  27.3020000  -0.9070000  43.5970000
  28.1570000  -1.3240000  43.9350000  26.0350000  -1.4730000  44.0470000
  25.2740000  -0.6980000  43.9760000  25.5730000  -2.6420000  43.1590000
  24.6210000  -3.0220000  43.5310000  25.4070000  -2.2310000  41.7000000
  24.6660000  -1.4340000  41.6290000  26.3610000  -1.8750000  41.3120000
  25.0750000  -3.0890000  41.1160000  26.5570000  -3.6790000  43.2380000
  26.1310000  -4.4560000  43.6080000  26.1130000  -1.8860000  45.5080000
  27.1390000  -2.3740000  45.9970000  24.9780000  -1.7010000  46.1810000
  24.1910000  -1.2900000  45.6800000  24.6900000  -2.3130000  47.4690000
  25.6300000  -2.7010000  47.8580000  24.1850000  -1.3080000  48.5280000
  23.1350000  -1.0870000  48.3310000  24.3100000  -1.9170000  49.9300000
  23.7770000  -2.8620000  49.9800000  25.3590000  -2.0920000  50.1710000
  23.8830000  -1.2360000  50.6660000  24.9500000   0.0220000  48.5170000
  26.0180000  -0.1590000  48.6410000  24.7720000   0.5390000  47.5760000
  24.5980000   0.6600000  49.3280000  23.7520000  -3.5010000  47.2670000
  22.6820000  -3.3530000  46.6720000  24.1140000  -4.6520000  47.8380000
  25.0150000  -4.6710000  48.3130000  23.3000000  -5.8650000  47.9010000
  22.4180000  -5.7330000  47.2770000  24.0440000  -7.1100000  47.3940000
  24.8920000  -7.3040000  48.0510000  23.3530000  -7.9520000  47.4350000
  24.5650000  -7.0010000  45.9790000  25.7860000  -6.3840000  45.7110000
  26.3260000  -5.9020000  46.5130000  26.3210000  -6.3790000  44.4240000
  27.2690000  -5.8970000  44.2330000  25.6310000  -6.9960000  43.3860000
  26.1810000  -7.0370000  42.1240000  27.0290000  -6.5950000  42.0360000
  24.4080000  -7.6030000  43.6260000  23.8670000  -8.0740000  42.8190000
  23.8820000  -7.6010000  44.9180000  22.9280000  -8.0730000  45.1020000
  22.8260000  -6.1300000  49.3220000  23.4070000  -5.6530000  50.3020000
  21.8370000  -7.0210000  49.3980000  21.5200000  -7.4700000  48.5290000
  21.2420000  -7.5330000  50.6230000  21.7600000  -7.1240000  51.4950000
  19.7730000  -7.0820000  50.6570000  19.7270000  -6.1320000  51.1800000
  19.4090000  -6.9290000  49.6400000  18.8180000  -8.0540000  51.3450000
  18.8390000  -9.0150000  50.8280000  19.1370000  -8.1880000  52.3790000
  17.3830000  -7.5160000  51.2880000  17.1350000  -7.2350000  50.2630000
  17.2920000  -6.6350000  51.9270000  16.4060000  -8.5980000  51.7460000
  16.4320000  -9.4260000  51.0180000  15.3930000  -8.1860000  51.7450000
  16.7590000  -9.0620000  53.1100000  17.7260000  -9.3600000  53.1470000
  16.6270000  -8.3130000  53.7790000  16.1760000  -9.8340000  53.3670000
  21.4280000  -9.0420000  50.6140000  21.1830000  -9.6620000  49.5880000
  21.8780000  -9.6320000  51.7200000  22.1450000  -9.0740000  52.5320000
  22.0630000 -11.0770000  51.7640000  21.2330000 -11.5340000  51.2250000
  22.9980000 -11.3070000  51.2540000  22.1220000 -11.7090000  53.1470000
  21.7090000 -11.1200000  54.1330000  22.5680000 -12.9550000  53.2040000
  22.8250000 -13.4260000  52.3480000  22.6970000 -13.6610000  54.4680000
  22.5080000 -12.9560000  55.2780000  21.6880000 -14.7970000  54.5850000
  21.6130000 -15.2480000  53.5950000  22.1140000 -15.5190000  55.2820000
  20.2540000 -14.5360000  55.0530000  19.7330000 -13.9440000  54.3000000
  19.5330000 -15.8880000  55.2470000  19.5230000 -16.4330000  54.3030000
  20.0580000 -16.4750000  56.0000000  18.5090000 -15.7100000  55.5740000
  20.2540000 -13.7550000  56.3620000  20.7720000 -14.3310000  57.1290000
  20.7640000 -12.8030000  56.2170000  19.2260000 -13.5730000  56.6760000
  24.0940000 -14.2390000  54.5530000  24.5690000 -14.8390000  53.6010000
  24.7570000 -14.0230000  55.6860000  24.3110000 -13.4860000  56.4160000
  26.1020000 -14.5320000  55.9120000  26.5870000 -14.7810000  54.9680000
  26.9980000 -13.4750000  56.5810000  27.0890000 -12.6230000  55.9070000
  26.5220000 -13.1560000  57.5080000  28.3730000 -13.9750000  56.9010000
  29.0980000 -14.9080000  56.2010000  28.7780000 -15.3770000  55.2820000
  30.2900000 -15.1580000  56.8390000  30.9990000 -15.8070000  56.5280000
  30.3590000 -14.3830000  57.9660000  31.3630000 -14.2920000  58.9360000
  32.2620000 -14.8870000  58.8690000  31.1630000 -13.4180000  59.9760000
  31.9180000 -13.3260000  60.7430000  29.9940000 -12.6390000  60.0630000
  29.8710000 -11.9580000  60.8920000  28.9920000 -12.7300000  59.0980000
  28.0990000 -12.1280000  59.1720000  29.1680000 -13.6180000  58.0310000
  25.9530000 -15.7610000  56.7870000  25.4330000 -15.6830000  57.8980000
  26.4140000 -16.8950000  56.2730000  26.8540000 -16.8790000  55.3640000
  26.3040000 -18.1600000  56.9820000  25.8680000 -17.9500000  57.9580000
  25.3980000 -19.1290000  56.1870000  25.9170000 -19.4670000  55.2900000
  25.0830000 -20.3700000  57.0250000  26.0120000 -20.8760000  57.2880000
  24.5620000 -20.0710000  57.9350000  24.4510000 -21.0460000  56.4490000
  24.1190000 -18.3920000  55.7560000  23.5220000 -18.2080000  56.6490000
  24.4140000 -17.4400000  55.3140000  23.2420000 -19.1220000  54.7500000
  23.8050000 -19.2910000  53.8320000  22.9310000 -20.0800000  55.1670000
  22.3610000 -18.5180000  54.5300000  27.6600000 -18.8090000  57.2050000
  28.0890000 -19.6410000  56.4120000  28.3550000 -18.4350000  58.2920000
  27.9190000 -17.4960000  59.3370000  27.4240000 -16.6250000  58.9070000
  27.2500000 -17.9780000  60.0500000  29.2170000 -17.1240000  59.9750000
  29.7350000 -16.3640000  59.3900000  29.0620000 -16.7580000  60.9900000
  29.9760000 -18.3980000  59.9810000  29.6290000 -19.0540000  60.7790000
  31.0440000 -18.2140000  60.1000000  29.6760000 -18.9990000  58.6130000
  30.4480000 -18.7800000  57.8750000  29.5710000 -20.5250000  58.6990000
  28.7380000 -21.0430000  59.4480000  30.4160000 -21.2300000  57.9420000
  31.0920000 -20.7320000  57.3800000  30.4050000 -22.7000000  57.8920000
  29.4900000 -22.9240000  57.3430000  31.6410000 -23.2350000  57.1490000
  31.6370000 -22.8270000  56.1380000  32.5320000 -22.8930000  57.6750000
  31.6950000 -24.7740000  57.0520000  30.7300000 -25.1290000  56.6890000
  31.8780000 -25.1750000  58.0490000  32.7820000 -25.2960000  56.1170000
  33.9880000 -25.1030000  56.4140000  32.4210000 -25.9180000  55.0910000
  30.2400000 -23.4340000  59.2270000  29.2940000 -24.2130000  59.4010000
  31.1450000 -23.1730000  60.1620000  31.8840000 -22.5100000  59.9740000
  31.0810000 -23.8320000  61.4520000  31.3140000 -24.8860000  61.3000000
  31.8380000 -23.3820000  62.0940000  29.7470000 -23.7500000  62.1770000
  29.0150000 -24.7440000  62.2540000  29.4120000 -22.5470000  62.6470000
  30.0340000 -21.7730000  62.4640000  28.1900000 -22.2880000  63.4140000
  28.2650000 -23.0280000  64.2110000  28.1750000 -20.8460000  63.9330000
  28.2250000 -20.1750000  63.0760000  27.2380000 -20.6850000  64.4660000
  29.3140000 -20.5050000  64.8670000  29.3230000 -21.2220000  65.6880000
  29.1560000 -19.5020000  65.2630000  30.6490000 -20.5480000  64.1670000
  30.8420000 -19.7640000  63.2160000  31.4960000 -21.3840000  64.5470000
  26.8490000 -22.5810000  62.7590000  26.7700000 -23.0620000  61.6220000
  25.7940000 -22.3030000  63.5210000  25.9530000 -21.9410000  64.4500000
  24.4240000 -22.4960000  63.0780000  24.3780000 -22.8070000  62.0340000
  23.7440000 -23.6040000  63.8960000  24.4130000 -24.4640000  63.9270000
  23.5850000 -23.2320000  64.9080000  22.3980000 -24.0650000  63.3390000
  21.9880000 -24.8330000  63.9950000  21.7180000 -23.2140000  63.3080000
  22.5390000 -24.6400000  61.9280000  23.0640000 -25.5930000  61.9870000
  23.1170000 -23.9440000  61.3200000  21.1820000 -24.8640000  61.2670000
  20.5810000 -25.5110000  61.9060000  21.3360000 -25.3480000  60.3020000
  20.4480000 -23.5820000  61.0520000  20.3000000 -23.1250000  61.9410000
  20.9910000 -22.9800000  60.4500000  19.5560000 -23.7730000  60.6200000
  23.7260000 -21.1560000  63.2870000  22.8680000 -21.0090000  64.1710000
  24.1440000 -20.1690000  62.4950000  24.8690000 -20.3640000  61.8200000
  23.5960000 -18.8170000  62.5640000  22.6150000 -18.9140000  63.0290000
  24.4990000 -17.8570000  63.4120000  23.9880000 -16.8960000  63.4640000
  24.6900000 -18.3690000  64.8290000  23.7170000 -18.4870000  65.3070000
  25.2010000 -19.3320000  64.8020000  25.2890000 -17.6560000  65.3950000
  25.8480000 -17.6740000  62.7510000  26.3600000 -18.6350000  62.6990000
  25.7090000 -17.2810000  61.7440000  26.4470000 -16.9740000  63.3340000
  23.4950000 -18.2050000  61.1690000  24.3500000 -18.4400000  60.3140000
  22.4370000 -17.4390000  60.9360000  21.7380000 -17.3260000  61.6560000
  22.2650000 -16.7570000  59.6590000  23.0680000 -17.0110000  58.9670000
  20.9710000 -17.1790000  58.9760000  20.1450000 -17.0330000  59.6730000
  20.8200000 -16.5520000  58.0970000  20.9850000 -18.6210000  58.5420000
  21.9690000 -18.8620000  58.1390000  20.7800000 -19.2550000  59.4050000
  19.9380000 -18.8790000  57.4790000  20.1770000 -18.2870000  56.5950000
  18.9620000 -18.5820000  57.8630000  19.8910000 -20.3480000  57.0930000
  19.6310000 -20.9410000  57.9700000  20.8700000 -20.6540000  56.7240000
  18.8770000 -20.5730000  56.0320000  17.9680000 -20.2910000  56.3700000
  19.1170000 -20.0280000  55.2160000  18.8560000 -21.5530000  55.7890000
  22.2560000 -15.2680000  59.9760000  21.3700000 -14.7890000  60.6680000
  23.2720000 -14.5560000  59.4960000  23.9610000 -15.0220000  58.9230000
  23.4340000 -13.1330000  59.7610000  22.7410000 -12.9010000  60.5700000
  24.8990000 -12.8350000  60.1820000  25.5470000 -12.9570000  59.3140000
  25.0200000 -11.3920000  60.7100000  24.7200000 -10.6930000  59.9290000
  24.3720000 -11.2670000  61.5780000  26.0530000 -11.1950000  60.9960000
  25.3090000 -13.8030000  61.2970000  24.7800000 -13.5170000  62.2060000
  25.0070000 -14.8080000  61.0020000  26.7820000 -13.8260000  61.5990000
  27.3300000 -14.1370000  60.7100000  27.1070000 -12.8290000  61.8970000
  26.9760000 -14.5290000  62.4090000  23.0520000 -12.2340000  58.5950000
  23.7430000 -12.1870000  57.5760000  21.9700000 -11.4640000  58.7500000
  21.0450000 -11.4520000  59.8880000  20.9450000 -12.4430000  60.3310000
  21.3620000 -10.7430000  60.6520000  19.7660000 -11.0130000  59.2260000
  19.2910000 -11.8410000  58.7000000  19.0690000 -10.5970000  59.9540000
  20.2380000  -9.9630000  58.2680000  20.4310000  -9.0380000  58.8150000
  19.4980000  -9.7880000  57.4870000  21.5160000 -10.5580000  57.6850000
  21.3430000 -11.0360000  56.7210000  22.5560000  -9.4520000  57.5070000
  22.9450000  -8.7950000  58.4870000  23.0030000  -9.2660000  56.2590000
  22.6260000  -9.8490000  55.5140000  24.1370000  -8.3900000  55.9230000
  24.3240000  -7.7280000  56.7670000  25.4430000  -9.1820000  55.6740000
  26.2340000  -8.4660000  55.4580000  25.8470000  -9.9470000  56.9300000
  25.9190000  -9.2560000  57.7680000  25.0800000 -10.6840000  57.1550000
  26.8050000 -10.4420000  56.7860000  25.3730000 -10.1700000  54.4980000
  24.6020000 -10.9120000  54.7080000  25.1280000  -9.6400000  53.5780000
  26.3310000 -10.6710000  54.3590000  23.8250000  -7.5000000  54.7300000
  23.0410000  -7.8720000  53.8490000  24.5490000  -6.3810000  54.6720000
  25.2120000  -6.2030000  55.4270000  24.6840000  -5.5540000  53.4840000
  23.9300000  -5.8520000  52.7550000  24.4280000  -4.0880000  53.8380000
  23.4220000  -3.9850000  54.2440000  25.1600000  -3.7590000  54.5780000
  24.5180000  -3.4660000  52.9460000  26.0660000  -5.7870000  52.8670000
  27.0600000  -5.9360000  53.5830000  26.1120000  -5.8200000  51.5300000
  25.2460000  -5.6640000  51.0170000  27.3290000  -6.0920000  50.7520000
  28.1750000  -6.1420000  51.4330000  27.2450000  -7.4490000  50.0000000
  26.5670000  -7.3060000  49.1740000  28.6070000  -7.7920000  49.3750000
  28.9250000  -6.9990000  48.6980000  29.3580000  -7.9090000  50.1530000
  28.5520000  -8.7150000  48.7980000  26.6680000  -8.6100000  50.8510000
  27.3810000  -8.8510000  51.6420000  25.7410000  -8.2940000  51.3270000
  26.3260000  -9.8990000  50.0840000  25.5550000  -9.7360000  49.3310000
  27.2240000 -10.2910000  49.6060000  25.9660000 -10.6150000  50.8230000
  27.5320000  -4.9230000  49.7840000  26.6170000  -4.6260000  49.0180000
  28.7040000  -4.2760000  49.7760000  29.4500000  -4.6300000  50.3790000
  28.9840000  -3.0990000  48.9250000  28.1430000  -2.9300000  48.2510000
  29.1090000  -1.8390000  49.8100000  28.1790000  -1.7250000  50.3700000
  29.9120000  -2.0100000  50.5220000  29.4110000  -0.5020000  49.1010000
  30.3540000  -0.5890000  48.5600000  28.6140000  -0.2720000  48.3930000
  29.5270000   0.6320000  50.1450000  30.2340000   0.3120000  50.9070000
  28.5570000   0.7990000  50.6160000  30.0480000   1.9530000  49.5580000
  29.3280000   2.3410000  48.8320000  30.9800000   1.7300000  49.0320000
  30.3420000   2.9790000  50.5990000  29.5350000   3.5090000  50.9330000
  30.8330000   2.5780000  51.4110000  31.0420000   3.6260000  50.2570000
  30.2110000  -3.3750000  48.0510000  31.2890000  -3.6550000  48.5820000
  30.0240000  -3.3060000  46.7230000  29.1140000  -2.9950000  46.3800000
  31.0680000  -3.5240000  45.6960000  32.0500000  -3.3820000  46.1530000
  31.0320000  -4.9430000  45.1000000  31.8850000  -5.0540000  44.4310000
  31.1150000  -5.6590000  45.9180000  29.7600000  -5.2530000  44.3150000
  29.4780000  -4.3640000  43.7510000  28.9690000  -5.5000000  45.0230000
  29.9130000  -6.4120000  43.3410000  30.0940000  -7.5670000  43.7850000
  29.8340000  -6.1670000  42.1190000  30.9480000  -2.5420000  44.5300000
  29.9410000  -1.8430000  44.3890000  31.9670000  -2.5280000  43.6720000
  32.7510000  -3.1450000  43.8320000  31.9860000  -1.6440000  42.5010000
  31.3360000  -0.7970000  42.7200000  33.4080000  -1.1470000  42.2350000
  34.0290000  -2.0200000  42.0330000  33.3740000  -0.5120000  41.3490000
  34.0860000  -0.3470000  43.3500000  33.9440000  -0.8630000  44.3000000
  35.5830000  -0.2510000  43.0720000  36.0080000  -1.2530000  43.0180000
  35.7440000   0.2630000  42.1250000  36.0670000   0.3060000  43.8750000
  33.4510000   1.0350000  43.4900000  33.5720000   1.5860000  42.5580000
  32.3900000   0.9260000  43.7130000  33.9390000   1.5790000  44.2990000
  31.4500000  -2.3530000  41.2510000  31.0210000  -3.5080000  41.3170000
  31.4760000  -1.6530000  40.1170000  31.8330000  -0.7080000  40.1340000
  31.0040000  -2.2090000  38.8470000  29.9960000  -2.5990000  38.9880000
  30.9500000  -1.1100000  37.7700000  30.4010000  -0.2630000  38.1800000
  31.9730000  -0.8060000  37.5460000  30.2770000  -1.5200000  36.4520000
  30.7700000  -2.4120000  36.0660000  30.3820000  -0.7070000  35.7340000
  28.7890000  -1.8210000  36.6480000  28.2620000  -0.8800000  36.8080000
  28.6760000  -2.4550000  37.5280000  28.1870000  -2.5050000  35.4980000
  28.4490000  -3.4670000  35.3350000  27.3200000  -1.9490000  34.6540000
  26.9470000  -0.6850000  34.8110000  26.2650000  -0.2780000  34.1870000
  27.3450000  -0.1300000  35.5550000  26.7920000  -2.6730000  33.6730000
  27.0480000  -3.6440000  33.5680000  26.1340000  -2.2520000  33.0320000
  31.9090000  -3.3700000  38.4010000  33.0630000  -3.4690000  38.8310000
  31.3740000  -4.2380000  37.5440000  30.4280000  -4.0800000  37.2280000
  32.0900000  -5.4110000  37.0370000  32.1350000  -6.0890000  37.8890000
  31.3180000  -6.0450000  35.8740000  31.9140000  -6.8680000  35.4810000
  30.3760000  -6.4320000  36.2640000  31.0010000  -5.1000000  34.7240000
  31.9360000  -4.7910000  34.2570000  30.4870000  -4.2250000  35.1220000
  30.1200000  -5.7440000  33.6690000  30.6060000  -6.6440000  32.9520000
  28.9400000  -5.3510000  33.5600000  33.5560000  -5.1950000  36.6510000
  34.4190000  -5.9900000  37.0270000  33.8360000  -4.1310000  35.9020000
  33.0860000  -3.5210000  35.6100000  35.2050000  -3.8270000  35.4930000
  35.6800000  -4.7460000  35.1500000  35.2110000  -2.8310000  34.3400000
  34.6590000  -3.2470000  33.4970000  34.7390000  -1.9020000  34.6600000
  36.2390000  -2.6310000  34.0380000  35.9960000  -3.2770000  36.6820000
  35.4440000  -2.5880000  37.5480000  37.2870000  -3.6000000  36.7230000
  37.6740000  -4.1690000  35.9840000  38.1600000  -3.1550000  37.8060000
  37.5530000  -3.1940000  38.7100000  39.3890000  -4.0900000  37.9690000
  40.0120000  -4.0020000  37.0790000  40.2100000  -3.6870000  39.2010000
  40.5470000  -2.6560000  39.0920000  39.5910000  -3.7740000  40.0940000
  41.0750000  -4.3450000  39.2920000  38.9470000  -5.4450000  38.1260000
  39.2740000  -5.7610000  38.9710000  38.6480000  -1.7170000  37.6120000
  39.1590000  -1.3560000  36.5430000  38.4520000  -0.8970000  38.6440000
  37.9890000  -1.2520000  39.4680000  38.8840000   0.4980000  38.6230000
  39.0850000   0.8170000  37.6000000  37.7810000   1.4160000  39.1730000
  37.6740000   1.2390000  40.2430000  36.8420000   1.1820000  38.6710000
  38.0890000   2.7860000  38.9600000  37.3700000   3.3060000  39.3270000
  40.1610000   0.6050000  39.4680000  40.3000000  -0.0750000  40.4930000
  41.1290000   1.4260000  39.0160000  41.0800000   2.1140000  37.7120000
  40.5400000   1.5230000  36.9730000  40.6170000   3.0970000  37.8000000
  42.5410000   2.2270000  37.3610000  42.9380000   1.2790000  36.9970000
  42.7130000   3.0040000  36.6160000  43.1410000   2.6000000  38.6950000
  42.9400000   3.6440000  38.9360000  44.2170000   2.4260000  38.7020000
  42.4250000   1.6610000  39.6760000  42.9330000   0.7160000  39.8670000
  42.3530000   2.2790000  41.0740000  42.6740000   1.6280000  42.0710000
  41.9590000   3.5500000  41.1210000  41.7260000   4.0110000  40.2530000
  41.8450000   4.3150000  42.3620000  42.7290000   4.0680000  42.9490000
  41.7950000   5.8140000  42.0430000  41.6690000   6.3620000  42.9770000
  42.7390000   6.1000000  41.5790000  40.6590000   6.1970000  41.1020000
  40.7780000   5.6500000  40.1670000  39.7110000   5.9230000  41.5650000
  40.6450000   7.6850000  40.8010000  41.5880000   7.9630000  40.3300000
  40.5290000   8.2370000  41.7340000  39.4980000   8.0390000  39.8670000
  38.5580000   7.7580000  40.3430000  39.6160000   7.4810000  38.9380000
  39.4600000   9.4930000  39.5510000  39.3510000  10.0200000  40.4050000
  40.3220000   9.7620000  39.0970000  38.6820000   9.6840000  38.9360000
  40.6370000   3.9370000  43.2250000  40.6730000   4.0990000  44.4460000
  39.5670000   3.4580000  42.5930000  39.5950000   3.3600000  41.5880000
  38.3520000   3.0700000  43.3120000  38.0680000   3.8970000  43.9630000
  37.2200000   2.8050000  42.3320000  37.0400000   3.6990000  41.7350000
  37.4940000   1.9790000  41.6760000  36.3150000   2.5470000  42.8830000
  38.5940000   1.8470000  44.1910000  37.9530000   1.6740000  45.2250000
  39.5360000   1.0120000  43.7700000  40.0220000   1.2210000  42.9100000
  39.8940000  -0.1930000  44.5030000  38.9840000  -0.7480000  44.7300000
  40.8150000  -1.0600000  43.6490000  41.7470000  -0.5200000  43.4820000
  40.3280000  -1.2500000  42.6920000  41.1320000  -2.3830000  44.3020000
  42.2200000  -2.4140000  45.0780000  40.4080000  -3.3730000  44.1170000
  40.6310000  -4.2520000  44.5620000  39.5960000  -3.3000000  43.5210000
  40.5820000   0.1630000  45.8160000  40.3640000  -0.4850000  46.8350000
  41.4430000   1.1740000  45.7700000  41.6150000   1.6330000  44.8870000
  42.1460000   1.6380000  46.9580000  42.6620000   0.7950000  47.4190000
  43.1860000   2.7060000  46.5940000  43.9560000   2.2420000  45.9770000
  42.6890000   3.4920000  46.0250000  43.8550000   3.3380000  47.8080000
  43.0810000   3.7220000  48.4720000  44.4310000   2.5720000  48.3270000
  44.7840000   4.4750000  47.4390000  44.2090000   5.2720000  46.9680000
  45.5400000   4.1120000  46.7430000  45.4670000   5.0160000  48.6860000
  45.9650000   4.1910000  49.1950000  44.7070000   5.4420000  49.3410000
  46.4780000   6.0670000  48.3860000  47.1900000   5.6860000  47.7790000
  46.0270000   6.8470000  47.9290000  46.9030000   6.3810000  49.2470000
  41.1290000   2.2400000  47.9180000  41.1620000   1.9740000  49.1180000
  40.2060000   3.0220000  47.3630000  40.2240000   3.1590000  46.3620000
  39.1720000   3.6880000  48.1410000  39.6970000   4.2610000  48.9050000
  38.3710000   4.6480000  47.2520000  37.9710000   4.0890000  46.4060000
  37.5480000   5.0610000  47.8360000  39.2230000   5.8060000  46.7170000
  39.9310000   5.4040000  45.9920000  39.7690000   6.2440000  47.5530000
  38.4160000   6.9100000  46.0390000  37.2930000   6.6380000  45.5510000
  38.9170000   8.0590000  45.9890000  38.2610000   2.7510000  48.9430000
  37.8610000   3.0830000  50.0640000  37.9430000   1.5810000  48.3950000
  38.2750000   1.3430000  47.4710000  37.1110000   0.6460000  49.1420000
  36.2390000   1.1640000  49.5480000  36.6530000  -0.5870000  48.3400000
  37.5460000  -1.0910000  47.9720000  35.9050000  -1.5550000  49.2940000
  36.5900000  -1.9820000  50.0250000  35.1210000  -0.9960000  49.8020000
  35.4600000  -2.4070000  48.7930000  35.7860000  -0.1590000  47.1470000
  34.9690000   0.4720000  47.5010000  36.3980000   0.4190000  46.4540000
  35.1910000  -1.3530000  46.3950000  35.9970000  -1.9740000  46.0040000
  34.5140000  -1.9360000  47.0150000  34.5770000  -0.9930000  45.5700000
  37.9530000   0.1320000  50.2910000  37.4580000   0.0030000  51.4100000
  39.2190000  -0.1490000  50.0120000  39.5780000  -0.0130000  49.0780000
  40.0790000  -0.6520000  51.0600000  39.5610000  -1.4750000  51.5530000
  41.3770000  -1.2390000  50.4890000  41.6660000  -0.6160000  49.6430000
  42.1340000  -1.1650000  51.2700000  41.3730000  -2.7030000  49.9960000
  42.4090000  -3.0430000  49.9860000  40.5580000  -3.5800000  50.9350000
  40.9710000  -3.5160000  51.9420000  39.5230000  -3.2390000  50.9440000
  40.5970000  -4.6140000  50.5920000  40.8200000  -2.8180000  48.5970000
  39.7830000  -2.4820000  48.5870000  41.4090000  -2.1980000  47.9210000
  40.8680000  -3.8570000  48.2710000  40.3280000   0.4050000  52.1330000
  40.4560000   0.0630000  53.3040000  40.3550000   1.6830000  51.7500000
  40.2490000   1.9090000  50.7710000  40.5350000   2.7640000  52.7190000
  41.4590000   2.5800000  53.2670000  40.6390000   4.1220000  52.0460000
  40.3290000   4.8870000  52.7580000  39.9710000   4.1350000  51.1850000
  42.0400000   4.4410000  51.5750000  43.0140000   3.9120000  52.1610000
  42.1640000   5.2420000  50.6220000  39.3220000   2.7880000  53.6250000
  39.4550000   2.9000000  54.8420000  38.1470000   2.6550000  53.0120000
  38.1350000   2.5540000  52.0070000  36.8280000   2.6050000  53.6850000
  36.7520000   3.4760000  54.3340000  35.6820000   2.7170000  52.6390000
  35.7800000   3.6730000  52.1230000  35.7920000   1.9210000  51.9040000
  34.2580000   2.6190000  53.2340000  34.1380000   3.4200000  53.9670000
  34.1670000   1.6730000  53.7700000  33.0900000   2.7070000  52.2200000
  33.2570000   3.1900000  51.0760000  31.9660000   2.2980000  52.6010000
  36.6820000   1.3570000  54.5830000  36.2060000   1.4440000  55.7160000
  37.2210000   0.2090000  54.1660000  37.5650000   0.1560000  53.2100000
  37.3350000  -0.9750000  55.0140000  36.3390000  -1.2720000  55.3460000
  37.9500000  -2.1100000  54.1950000  37.4000000  -2.2720000  53.2740000
  38.9670000  -1.8330000  53.9400000  37.9580000  -3.0300000  54.7810000
  38.2010000  -0.7010000  56.2540000  37.8040000  -1.0710000  57.3460000
  39.3450000  -0.0490000  56.0680000  39.5850000   0.2490000  55.1330000
  40.2620000   0.2530000  57.1500000  40.5750000  -0.7030000  57.5700000
  41.4860000   1.0190000  56.6170000  41.9920000   0.3920000  55.8830000
  41.1380000   1.9330000  56.1360000  42.4880000   1.3970000  57.7010000
  42.2730000   2.4930000  58.5450000  41.4070000   3.1200000  58.3890000
  43.1610000   2.7920000  59.5890000  42.9780000   3.6420000  60.2300000
  44.2660000   1.9970000  59.7920000  45.1470000   2.2810000  60.7990000
  46.0570000   2.0290000  60.6250000  44.5030000   0.9160000  58.9740000
  45.3710000   0.2950000  59.1380000  43.6160000   0.6210000  57.9270000
  43.8150000  -0.2250000  57.2860000  39.6040000   1.0580000  58.2730000
  39.8460000   0.7860000  59.4420000  38.8090000   2.0680000  57.9260000
  38.6510000   2.2700000  56.9490000  38.1640000   2.8850000  58.9510000
  38.9300000   3.0950000  59.6970000  37.6600000   4.2480000  58.4190000
  37.2180000   4.7950000  59.2520000  38.8040000   5.0530000  57.8490000
  39.5560000   5.2140000  58.6220000  39.2500000   4.5110000  57.0150000
  38.4320000   6.0160000  57.4980000  36.6430000   4.0370000  57.3620000
  37.0900000   3.4900000  56.5320000  35.7380000   3.5680000  57.7280000
  36.2810000   5.0020000  57.0080000  37.0160000   2.1320000  59.5840000
  36.9240000   2.0860000  60.8080000  36.1870000   1.4720000  58.7700000
  36.3360000   1.4860000  57.7710000  35.0430000   0.7460000  59.3300000
  34.4630000   1.4390000  59.9410000  34.1350000   0.2340000  58.2120000
  33.3740000  -0.3900000  58.6750000  34.7120000  -0.3640000  57.5050000
  33.4140000   1.3550000  57.4640000  34.1320000   1.9180000  56.8710000
  32.9740000   2.0310000  58.1940000  32.1010000   0.7580000  56.3690000
  30.8560000   0.3530000  57.6210000  31.1830000  -0.4920000  58.2240000
  30.7080000   1.2200000  58.2640000  29.9060000   0.1230000  57.1440000
  35.4710000  -0.4110000  60.2500000  34.7390000  -0.7690000  61.1690000
  36.6260000  -1.0010000  59.9790000  37.1690000  -0.6800000  59.1900000
  37.1300000  -2.0960000  60.7860000  36.3030000  -2.7540000  61.0550000
  38.1600000  -2.8970000  59.9840000  37.6920000  -3.2890000  59.0810000
  38.9920000  -2.2480000  59.7100000  38.5290000  -3.7240000  60.5900000
  37.7550000  -1.5580000  62.0650000  38.0180000  -2.3000000  62.9940000
  37.9770000  -0.2560000  62.1140000  37.7060000   0.3230000  61.3320000
  38.6070000   0.3620000  63.2770000  39.0310000  -0.4670000  63.8430000
  39.6670000   1.3520000  62.8030000  40.2170000   1.7280000  63.6660000
  39.1780000   2.1830000  62.2940000  40.5730000   0.7270000  61.9100000
  40.0670000   0.4110000  61.1580000  37.6650000   1.0720000  64.2500000
  38.1260000   1.7970000  65.1390000  36.3600000   0.9000000  64.0670000
  36.0390000   0.3180000  63.3070000  35.3800000   1.5370000  64.9440000
  35.9440000   2.0520000  65.7220000  34.5030000   2.5590000  64.1920000
  33.7900000   2.9930000  64.8920000  35.3490000   3.7120000  63.6360000
  35.8690000   4.2090000  64.4550000  36.0790000   3.3190000  62.9280000
  34.7010000   4.4270000  63.1300000  33.7300000   1.8520000  63.0800000
  34.4330000   1.4130000  62.3720000  33.1100000   1.0660000  63.5110000
  33.0960000   2.5730000  62.5630000  34.4540000   0.4900000  65.5290000
  34.0030000  -0.4110000  64.8390000  34.1630000   0.6220000  66.8100000
  34.5650000   1.3870000  67.3320000  33.2800000  -0.3080000  67.4810000
  32.6180000  -0.8210000  66.7830000  34.1150000  -1.4020000  68.1770000
  34.7570000  -0.9290000  68.9200000  34.7310000  -1.8990000  67.4280000
  33.2490000  -2.4580000  68.8780000  32.0470000  -2.5820000  68.5630000
  33.7720000  -3.1740000  69.7570000  32.4260000   0.5110000  68.4740000
  32.9020000   0.9530000  69.5290000  31.1930000   0.7920000  68.0620000
  30.8990000   0.4640000  67.1530000  30.2490000   1.5550000  68.8700000
  30.3490000   1.2520000  69.9120000  30.5550000   3.0520000  68.7730000
  30.4460000   3.3630000  67.7340000  31.5820000   3.2190000  69.0960000
  29.6340000   3.8950000  69.6310000  28.5380000   4.2700000  69.2050000
  30.0660000   4.1830000  70.8570000  30.9710000   3.8550000  71.1640000
  29.4890000   4.7300000  71.4800000  28.8240000   1.2680000  68.4140000
  28.5860000   1.0120000  67.2430000  27.8560000   1.2940000  69.3440000
  28.0740000   1.3340000  70.8040000  29.0080000   0.8420000  71.0760000
  28.0840000   2.3600000  71.1720000  26.8950000   0.5830000  71.3330000
  27.0280000  -0.4950000  71.2380000  26.6920000   0.8340000  72.3740000
  25.7880000   1.1050000  70.3940000  25.5130000   2.1300000  70.6440000
  24.9030000   0.4700000  70.4390000  26.4420000   1.0330000  69.0310000
  26.3230000   0.0810000  68.5150000  25.8030000   2.0010000  68.0500000
  24.7890000   1.7010000  67.4380000  26.4270000   3.1450000  67.8570000
  27.2900000   3.3320000  68.3470000  25.8890000   4.1400000  66.9480000
  24.9760000   3.7380000  66.5080000  25.5490000   5.3880000  67.7390000
  25.1320000   6.1330000  67.0610000  26.4610000   5.7790000  68.1910000
  24.5580000   5.1070000  68.8170000  23.2520000   4.7620000  68.5430000
  22.7910000   4.7880000  67.5670000  22.6530000   4.3940000  69.6620000
  21.6290000   4.0640000  69.7510000  23.5200000   4.4990000  70.6530000
  24.7160000   4.9520000  70.1510000  25.6150000   5.1480000  70.7170000
  26.7510000   4.4090000  65.7310000  26.6140000   5.4370000  65.0480000
  27.6470000   3.4610000  65.4660000  27.7410000   2.6830000  66.1030000
  28.4950000   3.5130000  64.2850000  28.1760000   4.3230000  63.6290000
  29.9420000   3.8210000  64.6440000  30.2890000   3.0970000  65.3820000
  30.8080000   3.7400000  63.4200000  30.7500000   2.7360000  63.0000000
  30.4620000   4.4630000  62.6820000  31.8400000   3.9620000  63.6900000
  30.0200000   5.2420000  65.2000000  29.6690000   5.9470000  64.4460000
  29.3940000   5.3190000  66.0890000  31.0520000   5.4740000  65.4610000
  28.3620000   2.1740000  63.5660000  28.2690000   1.1150000  64.2000000
  28.2750000   2.2210000  62.2430000  28.2720000   3.1250000  61.7740000
  28.1290000   1.0120000  61.4110000  27.4360000   0.3290000  61.9050000
  27.5420000   1.3420000  60.0330000  27.5670000   0.4530000  59.3970000
  28.1250000   2.1270000  59.5510000  25.8250000   1.8660000  60.2160000
  26.1420000   3.0900000  60.6700000  29.4610000   0.2810000  61.2360000
  30.3990000   0.8530000  60.6840000  29.5380000  -0.9840000  61.6740000
  28.7290000  -1.4170000  62.0940000  30.7900000  -1.7430000  61.6560000
  31.5800000  -1.0170000  61.4650000  30.9810000  -2.4320000  63.0130000
  30.8060000  -1.6880000  63.7900000  30.2350000  -3.2220000  63.0920000
  32.3400000  -3.0540000  63.2680000  33.0860000  -2.2700000  63.3930000
  32.6180000  -3.6890000  62.4270000  32.2550000  -3.8900000  64.5380000
  31.3770000  -4.5330000  64.4700000  32.1460000  -3.2160000  65.3880000
  33.4280000  -4.7320000  64.7630000  33.3040000  -5.7330000  64.7170000
  34.6490000  -4.2700000  65.0240000  34.8670000  -2.9630000  65.0880000
  34.1090000  -2.3160000  64.9250000  35.7910000  -2.6150000  65.3000000
  35.6510000  -5.1170000  65.2400000  35.4870000  -6.1130000  65.2060000
  36.5770000  -4.7640000  65.4380000  30.8610000  -2.7280000  60.4760000
  29.8800000  -3.3770000  60.0990000  32.0910000  -2.8650000  59.9740000
  32.8220000  -2.3050000  60.3900000  32.5050000  -3.8730000  59.0040000
  31.8020000  -3.8880000  58.1750000  33.8860000  -3.4780000  58.4590000
  33.8650000  -2.4420000  58.1440000  34.6040000  -3.5580000  59.2770000
  34.3580000  -4.3290000  57.2690000  33.9960000  -5.3420000  57.3830000
  33.8330000  -3.7670000  55.9460000  32.7450000  -3.7680000  55.9480000
  34.1880000  -2.7440000  55.8150000  34.1900000  -4.3850000  55.1240000
  35.8840000  -4.3850000  57.2480000  36.2940000  -3.3900000  57.0730000
  36.2420000  -4.7670000  58.2070000  36.2150000  -5.0520000  56.4580000
  32.5230000  -5.2690000  59.6360000  33.2200000  -5.5210000  60.6160000
  31.8120000  -6.2110000  59.0240000  31.3190000  -5.9800000  58.1660000
  31.9200000  -7.6150000  59.4010000  32.0040000  -7.6620000  60.4900000
  30.6540000  -8.3670000  58.9910000  30.4910000  -8.2520000  57.9200000
  30.8080000  -9.4290000  59.2220000  29.4450000  -7.8300000  59.7730000
  29.3970000  -6.7430000  59.7220000  28.1450000  -8.3710000  59.1920000
  28.0290000  -8.0270000  58.1650000  28.1860000  -9.4540000  59.1920000
  27.2980000  -8.0260000  59.7850000  29.5910000  -8.2590000  61.2310000
  29.6190000  -9.3470000  61.2990000  30.5070000  -7.8450000  61.6520000
  28.7330000  -7.8820000  61.7870000  33.1490000  -8.2500000  58.7470000
  33.8040000  -9.1130000  59.3330000  33.4550000  -7.8100000  57.5300000
  32.8670000  -7.1200000  57.0690000  34.6230000  -8.2760000  56.8380000
  35.5270000  -7.8740000  57.2950000  34.6220000  -9.3620000  56.9290000
  34.6380000  -7.8940000  55.3690000  33.8080000  -7.1010000  54.9110000
  35.5960000  -8.4780000  54.6420000  36.2740000  -9.0750000  55.0930000
  35.6880000  -8.2420000  53.2130000  34.7680000  -7.7800000  52.8650000
  36.8700000  -7.3030000  52.8350000  36.8730000  -7.2260000  51.7480000
  36.6020000  -5.8910000  53.3840000  35.5810000  -5.5950000  53.1540000
  36.7410000  -5.8790000  54.4620000  37.2730000  -5.1640000  52.9290000
  38.2060000  -7.8640000  53.3160000  38.2270000  -7.8340000  54.4050000
  38.2930000  -8.8970000  52.9800000  39.3960000  -7.0720000  52.7810000
  39.3960000  -7.1080000  51.6920000  39.3210000  -6.0360000  53.1110000
  40.3210000  -7.5070000  53.1590000  35.8100000  -9.5830000  52.5060000
  36.1760000 -10.6070000  53.1180000  35.3900000  -9.5890000  51.2460000
  35.0130000  -8.7370000  50.8550000  35.4530000 -10.7790000  50.4060000
  35.9450000 -11.6080000  50.9140000  34.0360000 -11.2700000  50.0580000
  33.5550000 -10.5120000  49.4400000  33.4790000 -11.3880000  50.9870000
  33.9830000 -12.8580000  49.1560000  34.5380000 -13.8150000  49.9060000
  36.2370000 -10.3710000  49.1510000  35.8260000  -9.4710000  48.4140000
  37.4010000 -10.9860000  48.9570000  37.7000000 -11.6930000  49.6130000
  38.2550000 -10.6630000  47.8190000  38.1440000  -9.5980000  47.6160000
  39.7180000 -10.9580000  48.1610000  39.7990000 -12.0190000  48.3990000
  40.3200000 -10.7370000  47.2790000  40.2970000 -10.1640000  49.3390000
  39.6590000 -10.3310000  50.2070000  41.7040000 -10.6540000  49.6150000
  41.6800000 -11.7210000  49.8370000  42.3280000 -10.4790000  48.7390000
  42.1160000 -10.1140000  50.4680000  40.3010000  -8.6450000  49.0820000
  40.9290000  -8.4240000  48.2190000  39.2830000  -8.3070000  48.8870000
  40.6930000  -8.1290000  49.9580000  37.8320000 -11.3910000  46.5490000
  38.2590000 -12.5090000  46.2940000  36.9850000 -10.7430000  45.7600000
  36.6760000  -9.8200000  46.0290000  36.4850000 -11.3200000  44.5180000
  36.6570000 -12.3960000  44.5040000  34.9570000 -11.0800000  44.3860000
  34.7990000 -10.0410000  44.0950000  34.3500000 -12.0050000  43.3230000
  34.8310000 -11.8190000  42.3620000  34.5070000 -13.0440000  43.6130000
  33.2810000 -11.8090000  43.2380000  34.3210000 -11.3580000  45.6380000
  34.7060000 -10.7740000  46.2950000  37.2210000 -10.6370000  43.3660000
  38.3870000 -10.2820000  43.5060000  36.5610000 -10.4820000  42.2230000
  35.6200000 -10.8410000  42.1450000  37.1610000  -9.8080000  41.0820000
  38.0570000 -10.3010000  40.7060000  36.1560000  -9.7630000  39.9360000
  36.6810000  -9.5470000  39.0060000  35.4240000  -8.9790000  40.1300000
  35.4870000 -11.0080000  39.8170000  34.8690000 -10.9370000  39.0860000
  37.4410000  -8.3990000  41.6010000  38.5110000  -7.8280000  41.3740000
  36.4490000  -7.8620000  42.3110000  35.5940000  -8.3910000  42.4070000
  36.5250000  -6.5530000  42.9590000  37.5050000  -6.1110000  42.7780000
  35.4860000  -5.5330000  42.4140000  35.5480000  -4.6270000  43.0170000
  35.7920000  -5.1640000  40.9620000  36.7940000  -4.7400000  40.8980000
  35.7360000  -6.0580000  40.3400000  35.0650000  -4.4320000  40.6120000
  34.1620000  -6.0780000  42.5140000  33.7890000  -6.0980000  41.6300000
  36.2180000  -6.8230000  44.4290000  35.4680000  -7.7540000  44.7670000
  36.8240000  -6.0310000  45.3010000  37.4400000  -5.3040000  44.9660000
  36.6190000  -6.1900000  46.7280000  36.7610000  -7.2440000  46.9660000
  37.6480000  -5.3570000  47.5100000  38.6490000  -5.7230000  47.2840000
  37.5670000  -3.9070000  47.0840000  37.7610000  -3.8310000  46.0140000
  36.5720000  -3.5190000  47.3010000  38.3100000  -3.3260000  47.6300000
  37.4350000  -5.5110000  49.0100000  36.4670000  -5.1220000  49.3230000
  37.5280000  -6.5620000  49.2840000  38.1840000  -4.9280000  49.5450000
  35.1880000  -5.8200000  47.1490000  34.5900000  -4.8960000  46.6020000
  34.6340000  -6.5990000  48.0750000  35.1710000  -7.3760000  48.4340000
  33.2950000  -6.3830000  48.5950000  32.8220000  -5.5420000  48.0900000
  32.4080000  -7.6240000  48.4020000  32.8270000  -8.4370000  48.9770000
  31.4150000  -7.4020000  48.7900000  32.2830000  -8.1140000  46.9570000
  33.2700000  -8.4090000  46.6010000  31.9030000  -7.3000000  46.3400000
  31.3380000  -9.3090000  46.8280000  31.4350000 -10.2890000  47.5750000
  30.4160000  -9.2240000  45.8790000  30.3720000  -8.4050000  45.2900000
  29.7580000  -9.9790000  45.7450000  33.4650000  -6.0600000  50.0680000
  34.0740000  -6.8490000  50.7930000  32.9120000  -4.9310000  50.5160000
  32.3990000  -4.3540000  49.8480000  32.6690000  -4.7170000  51.9400000
  33.5340000  -5.0520000  52.5110000  32.4150000  -3.2280000  52.2520000
  31.5000000  -2.9360000  51.7470000  32.2550000  -3.1240000  53.3270000
  33.4970000  -2.2300000  51.8150000  33.5690000  -2.2580000  50.7300000
  33.1080000  -0.8150000  52.2440000  32.1530000  -0.5450000  51.8010000
  33.0350000  -0.7430000  53.3310000  33.8500000  -0.1040000  51.8850000
  34.8590000  -2.5420000  52.4270000  34.7830000  -2.6020000  53.5100000
  35.2370000  -3.4800000  52.0250000  35.5560000  -1.7450000  52.1720000
  31.4620000  -5.5660000  52.3540000  30.4570000  -5.5860000  51.6370000
  31.5130000  -6.1530000  53.5530000  32.3960000  -6.1850000  54.0620000
  30.3490000  -6.7250000  54.2310000  29.4650000  -6.5160000  53.6300000
  30.4460000  -8.2670000  54.3580000  31.2900000  -8.5310000  54.9990000
  29.1600000  -8.8050000  55.0090000  29.0140000  -8.3790000  55.9990000
  28.3010000  -8.5640000  54.3800000  29.2200000  -9.8870000  55.1230000
  30.5900000  -8.9800000  52.9900000  30.1340000  -9.9700000  53.0390000
  30.0520000  -8.4140000  52.2310000  32.0360000  -9.1990000  52.5360000
  32.5570000  -8.2520000  52.4360000  32.5640000  -9.8250000  53.2540000
  32.0290000  -9.6950000  51.5660000  30.1560000  -6.0130000  55.5770000
  31.0910000  -5.9240000  56.3790000  28.9250000  -5.5690000  55.8540000
  28.1910000  -5.6810000  55.1530000  28.5140000  -4.9100000  57.1050000
  29.2280000  -5.1500000  57.8900000  28.4670000  -3.3700000  56.9890000
  28.1590000  -2.9640000  57.9530000  29.7930000  -2.7040000  56.6230000
  30.3590000  -2.5110000  57.5280000  30.3780000  -3.3230000  55.9490000
  29.6040000  -1.7570000  56.1250000  27.5040000  -2.9620000  56.0500000
  27.2990000  -2.0160000  56.2350000  27.1500000  -5.4360000  57.5550000
  26.4540000  -6.1440000  56.8200000  26.7500000  -5.1010000  58.7860000
  27.3580000  -4.5460000  59.3710000  25.4010000  -5.3860000  59.2670000
  25.2290000  -6.4610000  59.2020000  25.2830000  -4.9630000  60.7350000
  25.9130000  -5.6120000  61.3460000  25.6330000  -3.9340000  60.8380000
  23.8310000  -5.0430000  61.2280000  23.4500000  -6.0510000  61.0720000
  23.2100000  -4.3390000  60.6800000  23.7020000  -4.6680000  62.6860000
  24.3240000  -3.7470000  63.1790000  22.8540000  -5.3130000  63.4510000
  22.3350000  -6.0940000  63.0740000  22.8240000  -5.0100000  64.4040000
  24.3500000  -4.6730000  58.4070000  24.4490000  -3.4680000  58.1870000
  23.2880000  -5.3970000  58.0240000  23.2430000  -6.3710000  58.2940000
  22.1170000  -4.8430000  57.3440000  22.4750000  -4.2540000  56.5000000
  21.2410000  -5.9920000  56.8050000  21.8560000  -6.6600000  56.2120000
  20.8690000  -6.5600000  57.6590000  20.0370000  -5.5570000  55.9440000
  19.4330000  -4.8370000  56.4950000  20.4610000  -4.9310000  54.6100000
  21.0140000  -4.0120000  54.7900000  21.0860000  -5.6250000  54.0450000
  19.5770000  -4.6820000  54.0230000  19.1550000  -6.7700000  55.6360000
  19.7330000  -7.5200000  55.0940000  18.7930000  -7.2010000  56.5700000
  18.3010000  -6.4540000  55.0390000  21.3110000  -3.9300000  58.2810000
  21.0290000  -4.2930000  59.4230000  20.8630000  -2.7900000  57.7570000
  21.1540000  -2.5450000  56.8170000  20.0670000  -1.8010000  58.4780000
  19.9590000  -2.0850000  59.5240000  20.8300000  -0.4720000  58.4660000
  20.2480000   0.2780000  58.9980000  20.9530000  -0.1430000  57.4330000
  22.2250000  -0.6000000  59.1120000  22.7720000   0.3220000  58.9400000
  22.7860000  -1.3900000  58.6130000  22.2530000  -0.9250000  60.8960000
  21.8440000   0.7380000  61.4790000  22.6560000   1.4190000  61.2290000
  20.9300000   1.0850000  61.0030000  21.7010000   0.7200000  62.5560000
  18.6720000  -1.7520000  57.8280000  18.4710000  -1.0100000  56.8610000
  17.7400000  -2.6420000  58.2410000  17.7700000  -3.4840000  59.4310000
  18.7680000  -3.7630000  59.7430000  17.2680000  -2.9600000  60.2410000
  16.9830000  -4.7370000  59.0710000  17.6140000  -5.4210000  58.5010000
  16.5720000  -5.2250000  59.9550000  15.8900000  -4.1640000  58.1770000
  15.1000000  -3.7420000  58.8020000  15.4810000  -4.9200000  57.5050000
  16.6100000  -3.0500000  57.4050000  17.0060000  -3.4650000  56.4770000
  15.6370000  -1.9270000  57.0550000  14.9390000  -2.0380000  56.0510000
  15.6200000  -0.8370000  57.8270000  16.2800000  -0.7640000  58.5910000
  14.7400000   0.2980000  57.5790000  13.8800000  -0.0880000  57.0310000
  14.1640000   0.8050000  58.9000000  14.9900000   0.9700000  59.5790000
  13.6570000   1.7570000  58.7400000  13.1930000  -0.1500000  59.5590000
  11.8160000  -0.0970000  59.2760000  11.4340000   0.6180000  58.5650000
  10.9360000  -0.9950000  59.9070000   9.8790000  -0.9630000  59.6830000
  11.4310000  -1.9450000  60.8170000  10.7530000  -2.6360000  61.3000000
  12.8080000  -2.0070000  61.0920000  13.1920000  -2.7500000  61.7770000
  13.6870000  -1.1130000  60.4590000  14.7470000  -1.1810000  60.6500000
  15.2910000   1.3690000  56.6300000  14.6500000   2.3980000  56.4260000
  16.4850000   1.1360000  56.0670000  16.9890000   0.2910000  56.3210000
  17.1280000   2.0370000  55.1130000  17.8770000   1.4800000  54.5490000
  16.3770000   2.3970000  54.4090000  17.8040000   3.2450000  55.7650000
  18.2020000   3.2030000  56.9330000  18.0230000   4.2970000  54.9640000
  17.6530000   4.2750000  54.0270000  18.6790000   5.5290000  55.4150000
  19.3900000   5.2550000  56.1920000  19.4840000   6.1870000  54.2760000
  19.9880000   5.4240000  53.6800000  20.2590000   6.8100000  54.7290000
  18.4860000   7.2640000  53.1970000  17.7760000   6.3120000  52.5830000
  17.6620000   6.4850000  56.0560000  16.4880000   6.5330000  55.6730000
  18.1280000   7.2560000  57.0440000  19.1150000   7.1930000  57.2960000
  17.2410000   8.0710000  57.8750000  16.4490000   7.4200000  58.2460000
  18.0310000   8.6970000  59.0330000  18.6300000   7.9070000  59.4860000
  18.6900000   9.4540000  58.6080000  17.2270000   9.3620000  60.1510000
  16.6790000  10.2100000  59.7400000  16.2300000   8.3710000  60.7270000
  15.5590000   8.0310000  59.9380000  16.7650000   7.5170000  61.1420000
  15.6510000   8.8540000  61.5140000  18.1550000   9.8820000  61.2330000
  18.7160000   9.0510000  61.6610000  18.8480000  10.6040000  60.8010000
  17.5680000  10.3650000  62.0140000  16.5060000   9.1520000  57.0880000
  15.3480000   9.4300000  57.3770000  17.1820000   9.7640000  56.1190000
  18.1460000   9.5070000  55.9640000  16.5860000  10.7930000  55.2710000
  16.3650000  11.6490000  55.9090000  17.5460000  11.2220000  54.1640000
  18.4640000  11.5740000  54.6340000  17.8100000  10.3530000  53.5590000
  17.0360000  12.3320000  53.2370000  16.0950000  12.0160000  52.7870000
  16.7920000  13.6140000  54.0410000  16.0570000  13.4190000  54.8220000
  17.7270000  13.9410000  54.4960000  16.4190000  14.3940000  53.3770000
  18.0540000  12.5910000  52.1170000  19.0010000  12.9090000  52.5530000
  18.2060000  11.6750000  51.5450000  17.6770000  13.3730000  51.4570000
  15.3120000  10.2790000  54.6290000  14.2290000  10.8170000  54.8780000
  15.3850000   9.2380000  53.7980000  16.2710000   8.7970000  53.6000000
  14.1740000   8.7090000  53.1730000  13.6550000   9.5580000  52.7330000
  14.5170000   7.7760000  52.0110000  13.6070000   7.2690000  51.6880000
  15.2260000   7.0180000  52.3520000  15.0850000   8.5380000  50.8080000
  14.5930000   9.6580000  50.5120000  16.0230000   7.9850000  50.1960000
  13.1680000   8.1300000  54.1690000  11.9560000   8.2820000  53.9840000
  13.6710000   7.6380000  55.3110000  14.6800000   7.5250000  55.4090000
  12.8020000   7.1730000  56.3790000  12.1480000   6.4030000  55.9670000
  13.6320000   6.5480000  57.5030000  14.3270000   5.8200000  57.0810000
  14.2080000   7.3110000  58.0300000  12.7440000   5.8500000  58.5000000
  12.3720000   4.5120000  58.2770000  12.7550000   3.9810000  57.4140000
  11.4960000   3.8810000  59.1780000  11.1890000   2.8610000  59.0170000
  11.0020000   4.5960000  60.2920000  10.1230000   3.9780000  61.1570000
  10.2380000   3.0290000  61.2430000  11.3830000   5.9120000  60.5100000
  11.0090000   6.4520000  61.3670000  12.2480000   6.5280000  59.6180000
  12.5450000   7.5520000  59.7900000  11.9180000   8.3200000  56.9070000
  10.7010000   8.1250000  56.9850000  12.4660000   9.4920000  57.2250000
  13.4600000   9.6360000  57.1190000  11.6150000  10.5640000  57.7270000
  11.0470000  10.1300000  58.5500000  12.4010000  11.7620000  58.3280000
  11.6790000  12.5040000  58.6680000  13.2140000  11.3140000  59.5140000
  12.5540000  10.8770000  60.2630000  13.9440000  10.5700000  59.1940000
  13.7330000  12.1710000  59.9430000  13.2700000  12.4280000  57.2910000
  14.0090000  11.7160000  56.9250000  12.6500000  12.7680000  56.4610000
  13.7790000  13.2820000  57.7380000  10.6550000  11.0460000  56.6440000
   9.5440000  11.4810000  56.9430000  11.0710000  10.9290000  55.3850000
  11.9880000  10.5490000  55.1980000  10.2240000  11.3410000  54.2730000
   9.8630000  12.3420000  54.5110000  11.0200000  11.3930000  52.9770000
  11.6420000  10.5000000  52.9230000  10.3160000  11.3960000  52.1450000
  11.9160000  12.6020000  52.8420000  12.5580000  12.6740000  53.7200000
  11.3010000  13.4990000  52.7670000  12.7810000  12.4810000  51.5960000
  12.1300000  12.3830000  50.7270000  13.4020000  11.5900000  51.6870000
  13.6500000  13.6390000  51.4010000  13.5250000  14.4340000  52.0120000
  14.5990000  13.7120000  50.4660000  14.7910000  12.6810000  49.6450000
  15.5070000  12.7280000  48.9350000  14.2200000  11.8520000  49.7330000
  15.3580000  14.8100000  50.3470000  15.2140000  15.5930000  50.9690000
  16.0740000  14.8550000  49.6360000   8.9910000  10.4440000  54.1050000
   7.8580000  10.9280000  54.0510000   9.1860000   9.1400000  54.0560000
  10.1140000   8.7480000  54.1300000   8.0300000   8.2940000  53.8940000
   7.3010000   8.9080000  53.3650000   8.3330000   7.0690000  53.0120000
   7.4150000   6.8050000  52.4860000   9.0950000   7.3620000  52.2890000
   8.9350000   5.8290000  53.7010000   8.4060000   5.6240000  54.6110000
   9.9750000   6.0290000  53.9660000   8.8420000   4.5460000  52.8720000
   9.2280000   4.5930000  51.6840000   8.4130000   3.5280000  53.4700000
   7.3390000   7.9150000  55.1950000   6.5960000   6.9350000  55.2420000
   7.5750000   8.6780000  56.2560000   8.2170000   9.4550000  56.1880000
   6.9030000   8.3910000  57.5250000   5.9780000   7.8820000  57.2540000
   7.7370000   7.4460000  58.4200000   7.2440000   7.3740000  59.3890000
   8.7270000   7.8850000  58.5480000   7.9080000   6.0560000  57.8770000
   7.1130000   4.9590000  57.9630000   6.1570000   4.8990000  58.4610000
   7.7510000   3.9400000  57.2980000   7.3070000   2.9730000  57.0880000
   8.8920000   4.3590000  56.7680000   9.3870000   3.9020000  56.0060000
   9.0170000   5.6630000  57.1570000   9.8000000   6.2570000  56.9220000
   6.5090000   9.6600000  58.3030000   6.0330000   9.5530000  59.4300000
   6.6660000  10.8420000  57.6870000   7.0330000  10.8470000  56.7460000
   6.3280000  12.1380000  58.3170000   7.2250000  12.3610000  58.8940000
   6.0120000  13.2350000  57.2820000   4.9320000  13.2330000  57.1310000
   6.3160000  14.1860000  57.7190000   6.6550000  13.1460000  55.9120000
   7.7050000  13.4290000  55.9880000   6.5800000  12.1220000  55.5450000
   5.9430000  14.0920000  54.9300000   5.9020000  15.0870000  55.3730000
   4.9300000  13.7250000  54.7660000   6.6560000  14.1890000  53.5710000
   5.9740000  14.6460000  52.8540000   6.9090000  13.1820000  53.2400000
   7.9210000  15.0090000  53.6170000   7.7030000  15.9470000  53.9220000
   8.5720000  14.5870000  54.2640000   8.3350000  15.0420000  52.6960000
   5.0990000  12.0920000  59.2290000   5.1230000  12.5910000  60.3550000
   4.0130000  11.5220000  58.7140000   4.0660000  11.1270000  57.7860000
   2.7480000  11.4460000  59.4380000   2.6160000  12.4430000  59.8580000
   1.6060000  11.0850000  58.4690000   0.6640000  11.1150000  59.0160000
   1.7750000  10.0760000  58.0930000   1.5090000  12.0420000  57.2750000
   1.7700000  13.2560000  57.4370000   1.1700000  11.5750000  56.1650000
   2.7170000  10.5130000  60.6450000   1.6760000  10.3650000  61.2840000
   3.8460000   9.8890000  60.9580000   4.6730000  10.0560000  60.4030000
   3.9180000   8.9670000  62.0880000   3.0650000   9.2080000  62.7230000
   3.8350000   7.5050000  61.6130000   4.1130000   6.8550000  62.4420000
   4.5380000   7.3670000  60.7910000   2.4490000   7.1120000  61.1350000
   1.6110000   6.6620000  61.9230000   2.2080000   7.2540000  59.8340000
   1.3100000   6.9890000  59.4550000   2.9230000   7.6270000  59.2260000
   5.1960000   9.1370000  62.9070000   5.5670000   8.2430000  63.6780000
   5.8840000  10.2610000  62.7310000   5.5510000  10.9580000  62.0800000
   7.1140000  10.4900000  63.4720000   7.4120000   9.5510000  63.9390000
   8.2520000  10.9130000  62.5300000   7.9240000  11.7650000  61.9350000
   9.4680000  11.3150000  63.3280000   9.2130000  12.1470000  63.9850000
   9.8050000  10.4690000  63.9270000  10.2640000  11.6190000  62.6490000
   8.6080000   9.7420000  61.6040000   9.1290000   8.9860000  62.1920000
   7.6820000   9.3220000  61.2110000   9.4920000  10.1290000  60.4330000
   8.9780000  10.8680000  59.8190000  10.4250000  10.5520000  60.8060000
   9.7080000   9.2450000  59.8330000   6.8970000  11.5010000  64.5870000
   6.7110000  12.6940000  64.3460000   6.8810000  10.9940000  65.8130000
   7.0150000  10.0010000  65.9420000   6.6750000  11.8410000  66.9700000
   6.0500000  12.6830000  66.6720000   6.1600000  11.2590000  67.7340000
   7.9560000  12.3840000  67.5660000   9.0200000  11.7790000  67.4330000
   7.8210000  13.4870000  68.2980000   6.8930000  13.8660000  68.4200000
   8.9330000  14.1800000  68.9330000   9.5140000  14.5770000  68.1000000
   8.3980000  15.2840000  69.8380000   7.8400000  16.0030000  69.2380000
   9.2330000  15.7870000  70.3250000   7.5450000  14.7360000  70.8230000
   6.8200000  14.3000000  70.3690000   9.9280000  13.3170000  69.7080000
  11.0980000  13.6630000  69.7910000   9.4660000  12.2170000  70.2930000
   8.4880000  11.9790000  70.2150000  10.3610000  11.3570000  71.0430000
  10.8940000  11.9840000  71.7580000   9.5810000  10.2990000  71.7960000
   8.8170000  10.7950000  72.3950000   9.1030000   9.6410000  71.0700000
  10.4360000   9.4570000  72.7140000  11.2560000   9.0300000  72.1360000
   9.8240000   8.6540000  73.1240000  11.0140000  10.2630000  73.8590000
  12.2080000  10.8270000  73.6540000  10.3940000  10.3800000  74.9200000
  10.7870000  10.9200000  75.6780000   9.4940000   9.9360000  75.0300000
  11.3860000  10.6860000  70.1250000  12.5580000  10.5320000  70.4860000
  10.9330000  10.2880000  68.9440000   9.9610000  10.4310000  68.7110000
  11.8080000   9.6520000  67.9840000  12.3710000   8.8710000  68.4950000
  11.0030000   8.9870000  66.8780000  10.1990000   9.6610000  66.5830000
  11.6620000   8.8140000  66.0270000  10.3940000   7.6650000  67.2880000
   9.2970000   7.6040000  68.1390000   8.8800000   8.5180000  68.5350000
   8.7260000   6.3830000  68.4900000   7.8720000   6.3510000  69.1500000
   9.2620000   5.2120000  67.9860000   8.7350000   3.9830000  68.3180000
   7.9780000   4.0120000  68.9080000  10.3470000   5.2550000  67.1450000
  10.7640000   4.3390000  66.7530000  10.9050000   6.4760000  66.8010000
  11.7570000   6.4990000  66.1380000  12.8090000  10.6490000  67.4260000
  14.0120000  10.3570000  67.3510000  12.3410000  11.8460000  67.0910000
  11.3570000  12.0520000  67.1910000  13.2560000  12.8640000  66.5770000
  13.7050000  12.4490000  65.6740000  12.5090000  14.1360000  66.2200000
  11.8440000  14.3850000  67.0470000  13.2380000  14.9350000  66.0870000
  11.6700000  14.0340000  64.9420000  11.0750000  13.1210000  64.9800000
  10.6960000  15.2020000  64.8140000  10.0280000  15.2140000  65.6760000
  11.2540000  16.1370000  64.7730000  10.1100000  15.0880000  63.9020000
  12.6120000  14.0060000  63.7530000  13.1980000  14.9250000  63.7320000
  13.2820000  13.1500000  63.8400000  12.0330000  13.9230000  62.8330000
  14.3940000  13.1770000  67.5530000  15.5730000  13.1370000  67.1760000
  14.0480000  13.4210000  68.8160000  13.0730000  13.3780000  69.0760000
  15.0450000  13.7500000  69.8370000  15.6840000  14.5150000  69.3960000
  14.3830000  14.3350000  71.0890000  13.6510000  13.6240000  71.4710000
  15.1460000  14.5130000  71.8460000  13.6780000  15.6560000  70.7680000
  13.1220000  15.5290000  69.8390000  12.7000000  16.0010000  71.8680000
  11.9750000  15.1940000  71.9750000  13.2400000  16.1320000  72.8060000
  12.1810000  16.9250000  71.6160000  14.6790000  16.7920000  70.5250000
  15.2640000  16.9600000  71.4290000  15.3450000  16.5200000  69.7060000
  14.1390000  17.7030000  70.2670000  15.9760000  12.5930000  70.1830000
  17.1510000  12.8260000  70.4330000  15.4600000  11.3650000  70.2330000
  14.4680000  11.2350000  70.0950000  16.3170000  10.1970000  70.4870000
  16.8430000  10.3830000  71.4230000  15.5090000   8.9000000  70.6580000
  16.1830000   8.0520000  70.5340000  14.7380000   8.8670000  69.8880000
  14.8310000   8.7890000  72.0340000  15.0490000   9.6100000  72.9290000
  14.0210000   7.7470000  72.2060000  13.5600000   7.6070000  73.0940000
  13.8680000   7.0960000  71.4490000  17.3250000  10.0240000  69.3300000
  18.4720000   9.6600000  69.5690000  16.9190000  10.2950000  68.0850000
  15.9670000  10.5830000  67.9110000  17.8690000  10.1700000  66.9760000
  18.2880000   9.1650000  67.0220000  17.1980000  10.3020000  65.6020000
  16.6510000  11.2440000  65.5710000  17.9730000  10.3070000  64.8350000
  16.2480000   9.1900000  65.3120000  16.2980000   7.9240000  65.8160000
  17.0660000   7.5520000  66.4780000  15.2200000   7.1820000  65.3550000
  15.0260000   6.2190000  65.5890000  14.4620000   7.9710000  64.5310000
  13.2920000   7.6720000  63.8270000  12.8430000   6.6910000  63.8780000
  12.7350000   8.6730000  63.0680000  11.8330000   8.4720000  62.5090000
  13.3110000   9.9490000  63.0030000  12.8430000  10.7140000  62.4010000
  14.4840000  10.2470000  63.7070000  14.9240000  11.2320000  63.6510000
  15.0740000   9.2480000  64.4830000  18.9880000  11.1940000  67.1290000
  20.1450000  10.8620000  66.9190000  18.6570000  12.4160000  67.5550000
  17.6870000  12.6300000  67.7400000  19.6720000  13.4500000  67.7590000
  20.2120000  13.5720000  66.8200000  19.0310000  14.7740000  68.1250000
  19.8200000  15.4690000  68.4130000  18.3650000  14.6100000  68.9720000
  18.0800000  15.5190000  66.7940000  17.0870000  14.6980000  66.4420000
  20.6680000  13.0320000  68.8480000  21.8690000  13.2750000  68.7230000
  20.1750000  12.3660000  69.8860000  19.1830000  12.1810000  69.9300000
  21.0400000  11.8950000  70.9660000  21.6180000  12.7460000  71.3270000
  20.2080000  11.3250000  72.1710000  19.4550000  10.6510000  71.7620000
  21.1000000  10.5790000  73.1270000  21.5960000   9.7640000  72.6000000
  21.8500000  11.2600000  73.5310000  20.5010000  10.1740000  73.9420000
  19.5450000  12.4540000  72.9340000  20.3090000  13.1190000  73.3370000
  18.8940000  13.0140000  72.2620000  18.9540000  12.0420000  73.7520000
  21.9760000  10.8000000  70.4320000  23.1870000  10.8650000  70.6250000
  21.3930000   9.8020000  69.7670000  20.3900000   9.8270000  69.6520000
  22.1260000   8.6750000  69.1950000  22.6600000   8.1840000  70.0090000
  21.1470000   7.7000000  68.5600000  20.4350000   8.2580000  67.9520000
  21.6990000   7.0050000  67.9270000  20.3820000   6.9060000  69.6200000
  19.8390000   7.6070000  70.2530000  21.1010000   6.3520000  70.2240000
  19.4000000   5.9320000  69.0330000  19.5690000   5.4590000  67.9080000
  18.3630000   5.6180000  69.7880000  18.2630000   6.0290000  70.7050000
  17.6700000   4.9670000  69.4480000  23.1820000   9.1060000  68.1940000
  24.3350000   8.6330000  68.2410000  22.8060000  10.0220000  67.3010000
  21.8630000  10.3830000  67.3110000  23.7560000  10.4980000  66.3160000
  24.1580000   9.6470000  65.7670000  23.0980000  11.4190000  65.2710000
  22.5690000  12.2220000  65.7850000  24.1760000  12.0730000  64.3670000
  24.8660000  12.6500000  64.9830000  24.7260000  11.2950000  63.8370000
  23.6940000  12.7330000  63.6460000  22.0840000  10.6310000  64.4490000
  22.6210000   9.8910000  63.8560000  21.4040000  10.1240000  65.1330000
  21.2590000  11.5030000  63.5040000  20.6980000  12.2370000  64.0830000
  21.9240000  12.0180000  62.8110000  20.5660000  10.8760000  62.9430000
  24.8660000  11.2410000  67.0590000  26.0230000  11.1030000  66.7080000
  24.5220000  12.0010000  68.1010000  23.5490000  12.0740000  68.3620000
  25.5310000  12.7300000  68.8720000  26.1310000  13.2970000  68.1600000
  24.8830000  13.6930000  69.8300000  24.2470000  14.3830000  69.2760000
  24.2790000  13.1390000  70.5490000  25.6540000  14.2540000  70.3590000
  26.4750000  11.7810000  69.6220000  27.6680000  12.0640000  69.7600000
  25.9470000  10.6590000  70.0980000  24.9590000  10.4860000  69.9800000
  26.7680000   9.6750000  70.7860000  27.2970000  10.1890000  71.5880000
  25.9100000   8.5740000  71.3700000  25.1950000   8.2570000  70.6100000
  26.5580000   7.7370000  71.6310000  25.1560000   8.9750000  72.5800000
  25.8560000   9.3500000  73.3270000  24.4520000   9.7640000  72.3140000
  24.3860000   7.8010000  73.1680000  25.0610000   6.9640000  73.3470000
  23.5970000   7.4910000  72.4830000  23.7740000   8.2750000  74.4940000
  23.0660000   9.0750000  74.2770000  24.5770000   8.6610000  75.1220000
  23.0690000   7.2260000  75.2400000  22.3200000   6.8550000  74.6730000
  23.7150000   6.4850000  75.4710000  22.6870000   7.6160000  76.0900000
  27.7700000   9.0500000  69.8220000  28.9500000   8.9320000  70.1480000
  27.2820000   8.6290000  68.6490000  26.2940000   8.7270000  68.4630000
  28.1380000   8.0350000  67.6360000  28.5620000   7.1090000  68.0240000
  27.5440000   7.8180000  66.7480000  29.2670000   8.9840000  67.2630000
  30.4410000   8.5900000  67.2090000  28.9220000  10.2510000  67.0600000
  27.9560000  10.5240000  67.1710000  29.9020000  11.2500000  66.6830000
  30.4410000  10.8470000  65.8260000  29.2180000  12.5560000  66.2760000
  29.9830000  13.3220000  66.1510000  28.5350000  12.8510000  67.0730000
  28.4410000  12.4480000  65.0010000  28.0850000  13.4450000  64.7400000
  27.5880000  11.7940000  65.1830000  29.3630000  11.7850000  63.5630000
  30.5950000  13.0280000  63.4590000  30.1220000  13.9950000  63.2910000
  31.1610000  13.0570000  64.3900000  31.2680000  12.8040000  62.6310000
  30.9350000  11.5100000  67.7800000  32.1200000  11.7060000  67.4820000
  30.4900000  11.5440000  69.0380000  29.5060000  11.4050000  69.2170000
  31.3980000  11.7790000  70.1670000  31.9120000  12.7320000  70.0390000
  30.6350000  11.8650000  71.4970000  30.0070000  10.9800000  71.5940000
  30.0070000  12.7560000  71.4800000  31.5630000  11.9440000  72.7210000
  32.3100000  12.9110000  72.8980000  31.5020000  10.9300000  73.5740000
  30.8780000  10.1560000  73.3950000  32.0790000  10.9320000  74.4030000
  32.3870000  10.6220000  70.1960000  33.5720000  10.8300000  70.4310000
  31.8980000   9.4190000  69.8870000  30.9150000   9.3290000  69.6740000
  32.7390000   8.2340000  69.8480000  33.2030000   8.0980000  70.8250000
  31.9260000   6.9740000  69.5550000  31.2890000   6.7610000  70.4140000
  31.3050000   7.1540000  68.6780000  32.8060000   5.7670000  69.2890000
  33.3920000   5.0570000  70.3400000  33.1760000   5.3430000  71.3590000
  34.2500000   3.9880000  70.0970000  34.6970000   3.4500000  70.9200000
  34.5270000   3.6170000  68.7800000  35.3600000   2.5620000  68.5020000
  35.7270000   2.1210000  69.2720000  33.9580000   4.3030000  67.7260000
  34.1760000   4.0140000  66.7090000  33.1000000   5.3710000  67.9830000
  32.6540000   5.9030000  67.1560000  33.8020000   8.4320000  68.7770000
  34.9950000   8.2820000  69.0540000  33.3690000   8.7890000  67.5680000
  32.3780000   8.8920000  67.4040000  34.3070000   9.0320000  66.4800000
  34.7870000   8.0800000  66.2510000  33.6020000   9.5190000  65.2090000
  32.9340000  10.3370000  65.4780000  34.3590000   9.8810000  64.5130000
  32.7800000   8.4370000  64.5070000  31.9290000   8.1680000  65.1330000
  32.3070000   8.9740000  63.2000000  31.6950000   9.8600000  63.3710000
  33.1660000   9.2390000  62.5840000  31.7140000   8.2160000  62.6890000
  33.6160000   7.1720000  64.2850000  34.4770000   7.4100000  63.6610000
  33.9590000   6.7900000  65.2460000  33.0070000   6.4160000  63.7900000
  35.3540000  10.0380000  66.9020000  36.5190000   9.8490000  66.6100000
  34.9510000  11.0770000  67.6370000  33.9750000  11.1590000  67.8850000
  35.8960000  12.1020000  68.0910000  36.4230000  12.4740000  67.2130000
  35.1740000  13.2810000  68.7390000  34.4650000  13.6950000  68.0220000
  34.6360000  12.9230000  69.6160000  36.1370000  14.3860000  69.1710000
  36.8200000  14.5820000  68.3450000  36.7010000  14.0270000  70.0320000
  35.4690000  15.7010000  69.5570000  34.2490000  15.8640000  69.3490000
  36.1820000  16.5910000  70.0640000  36.9180000  11.5050000  69.0600000
  38.1040000  11.8210000  69.0020000  36.4520000  10.6320000  69.9400000
  35.4640000  10.4250000  69.9540000  37.3280000   9.9680000  70.8820000
  37.8480000  10.7130000  71.4840000  36.5060000   9.0630000  71.8050000
  37.1460000   8.2540000  72.1590000  35.6760000   8.6460000  71.2340000
  35.9450000   9.8000000  73.0090000  36.4260000  10.9140000  73.3050000
  35.0370000   9.2540000  73.6740000  38.3490000   9.1220000  70.1090000
  39.5110000   9.0320000  70.4860000  37.9170000   8.5560000  68.9900000
  36.9670000   8.7220000  68.6890000  38.7760000   7.7030000  68.1860000
  39.4410000   7.1140000  68.8170000  37.8930000   6.7400000  67.3760000
  37.1910000   6.2740000  68.0670000  37.3430000   7.3310000  66.6440000
  38.6040000   5.6390000  66.6340000  39.4440000   6.0730000  66.0910000
  37.9060000   5.1900000  65.9270000  39.1330000   4.5470000  67.5520000
  38.2960000   4.0840000  68.0750000  39.8140000   4.9910000  68.2780000
  39.8470000   3.5220000  66.7920000  39.4720000   2.5840000  66.8000000
  40.9600000   3.7400000  66.0880000  41.5050000   4.9490000  66.0330000
  41.0640000   5.7240000  66.5080000  42.3610000   5.0940000  65.5170000
  41.5540000   2.7380000  65.4590000  41.1650000   1.8070000  65.5110000
  42.3960000   2.9040000  64.9270000  39.6360000   8.5710000  67.2810000
  40.4600000   8.0740000  66.5230000  39.4690000   9.8820000  67.4140000
  38.8150000  10.2170000  68.1070000  40.1880000  10.8600000  66.6040000
  39.8770000  11.8390000  66.9680000  41.7040000  10.7300000  66.7820000
  41.9780000   9.6840000  66.6450000  42.1930000  11.3370000  66.0200000
  42.1980000  11.1800000  68.1440000  41.8490000  10.4700000  68.8940000
  41.7840000  12.1660000  68.3570000  43.7150000  11.2620000  68.2200000
  44.0870000  11.8880000  67.4090000  44.1390000  10.2620000  68.1310000
  44.1000000  11.8430000  69.5000000  44.1340000  11.2310000  70.3030000
  44.4100000  13.1230000  69.6830000  44.4000000  13.9660000  68.6550000
  44.2080000  13.6250000  67.7240000  44.5850000  14.9480000  68.8050000
  44.6630000  13.5720000  70.9080000  44.6190000  12.9420000  71.6960000
  44.8990000  14.5440000  71.0510000  39.8200000  10.7880000  65.1310000
  40.6390000  11.0610000  64.2660000  38.5670000  10.4670000  64.8490000
  37.9190000  10.2830000  65.6010000  38.1120000  10.3760000  63.4730000
  38.9980000  10.4550000  62.8430000  37.4090000   9.0490000  63.2680000
  38.0250000   8.2520000  63.6850000  36.4480000   9.0720000  63.7820000
  37.1750000   8.7740000  61.7960000  36.7570000   9.6540000  61.3080000
  38.5130000   8.4100000  61.1810000  39.2060000   9.2430000  61.3000000
  38.9150000   7.5290000  61.6810000  38.3790000   8.1970000  60.1200000
  36.1890000   7.6470000  61.6160000  36.5760000   6.7460000  62.0930000
  35.2380000   7.9200000  62.0720000  36.0410000   7.4600000  60.5520000
  37.1760000  11.5230000  63.0540000  36.2080000  11.8030000  63.7330000
  37.4750000  12.1660000  61.9330000  38.3000000  11.8840000  61.4230000
  36.6760000  13.2540000  61.4050000  35.9850000  13.6190000  62.1640000
  37.6000000  14.4560000  61.0020000  38.4000000  14.0500000  60.3830000
  36.8520000  15.4940000  60.2050000  36.4310000  15.0320000  59.3120000
  36.0480000  15.9090000  60.8130000  37.5360000  16.2910000  59.9140000
  38.1810000  15.1140000  62.2370000  37.3730000  15.5170000  62.8480000
  38.7400000  14.3760000  62.8130000  38.8480000  15.9230000  61.9380000
  35.8580000  12.7320000  60.2040000  36.3700000  12.6150000  59.1050000
  34.6690000  12.3250000  60.5330000  34.4180000  12.2620000  61.5090000
  33.7130000  11.9660000  59.5370000  34.1220000  10.9870000  59.2860000
  32.4010000  11.4280000  59.9680000  31.8460000  12.2750000  60.3710000
  32.6140000  10.7190000  60.7680000  31.4840000  10.7410000  59.0500000
  30.7790000  11.3070000  58.0330000  30.0410000  10.4330000  57.3980000
  29.5050000  10.5630000  56.4780000  30.1640000   9.2610000  58.0240000
  29.7010000   8.3940000  57.7340000  31.0440000   9.4380000  59.0720000
  31.3420000   8.6770000  59.7780000  33.8710000  12.5170000  58.1670000
  34.6440000  11.8830000  57.3840000  33.6560000  13.7940000  57.9140000
  33.4360000  14.3620000  58.7200000  33.6890000  14.4880000  56.6730000
  33.4780000  15.4600000  57.1190000  35.0010000  14.7900000  56.0400000
  35.3040000  13.8790000  55.5230000  34.8100000  15.5760000  55.3090000
  36.1880000  15.2340000  56.8220000  36.2900000  14.5980000  57.7010000
  36.0380000  16.2670000  57.1360000  37.4600000  15.1500000  56.0060000
  37.5810000  14.1150000  55.6870000  38.2900000  15.4300000  56.6550000
  37.5230000  15.9810000  54.8320000  37.4080000  16.9730000  54.9850000
  37.7130000  15.6080000  53.5790000  37.8270000  14.3400000  53.2400000
  37.7800000  13.6220000  53.9480000  37.9610000  14.0860000  52.2720000
  37.7780000  16.5370000  52.6270000  37.6820000  17.5130000  52.8670000
  37.9230000  16.2650000  51.6650000  32.5260000  14.3370000  55.7370000
  32.2850000  15.1510000  54.8030000  31.4680000  13.5730000  56.0660000
  31.4990000  13.0310000  56.9180000  30.2860000  13.5070000  55.2310000
  30.0820000  14.5000000  54.8300000  30.5310000  12.5580000  54.0450000
  30.6090000  11.5400000  54.4260000  31.4680000  12.8390000  53.5640000
  29.4190000  12.6020000  53.0030000  28.7230000  13.6320000  52.8920000
  29.2330000  11.5980000  52.2890000  29.0530000  13.0970000  56.0500000
  28.2880000  12.1990000  55.6710000  28.8620000  13.7830000  57.1720000
  29.5160000  14.5120000  57.4200000  27.7360000  13.5130000  58.0540000
  27.5730000  12.4370000  58.1240000  28.0170000  14.0580000  59.4610000
  28.9010000  13.5460000  59.8400000  28.2270000  15.1230000  59.3640000
  26.9050000  13.9000000  60.5110000  26.0710000  14.5510000  60.2470000
  26.3580000  12.4610000  60.5400000  25.9630000  12.2030000  59.5580000
  27.1610000  11.7720000  60.8010000  25.5630000  12.3890000  61.2820000
  27.4520000  14.2980000  61.8670000  28.2850000  13.6460000  62.1280000
  27.7970000  15.3310000  61.8310000  26.6670000  14.2030000  62.6170000
  26.5170000  14.2050000  57.4850000  26.5340000  15.4100000  57.2930000
  25.4350000  13.4520000  57.3190000  25.4720000  12.4770000  57.5810000
  24.2000000  13.9870000  56.7730000  23.8910000  14.9010000  57.2800000
  24.3950000  14.3160000  55.3250000  25.1630000  15.0830000  55.2270000
  24.7050000  13.4200000  54.7870000  23.4580000  14.6850000  54.9070000
  23.1530000  12.8970000  56.9420000  23.5150000  11.7350000  57.1450000
  21.8660000  13.2510000  56.8790000  21.6160000  14.2140000  56.7070000
  20.8140000  12.2410000  57.0600000  20.9520000  11.8720000  58.0760000
  19.4040000  12.8710000  56.9250000  19.3070000  13.6990000  57.6280000
  19.2670000  13.2400000  55.9080000  18.6470000  12.1180000  57.1440000
  20.9450000  11.0100000  56.1590000  20.6260000   9.8950000  56.5770000
  21.4320000  11.2030000  54.9330000  21.7020000  12.1330000  54.6450000
  21.6070000  10.0710000  53.9860000  20.6650000   9.5250000  53.9210000
  21.9740000  10.5700000  52.5760000  21.9190000   9.7390000  51.8710000
  21.2660000  11.3260000  52.2770000  23.3690000  11.1890000  52.5190000
  24.1270000  10.4300000  52.6970000  23.4570000  11.9610000  53.2840000
  23.6310000  11.8210000  51.1370000  22.6910000  11.8900000  50.5900000
  24.3290000  11.1940000  50.5820000  24.2010000  13.1610000  51.2890000
  23.5870000  13.9530000  51.1650000  25.4740000  13.4010000  51.5800000
  26.3300000  12.3940000  51.7220000  27.2740000  12.5740000  52.0330000
  26.0360000  11.4490000  51.5190000  25.8630000  14.6360000  51.8470000
  25.1930000  15.3920000  51.8290000  26.8300000  14.8240000  52.0690000
  22.6550000   9.0480000  54.4520000  22.6290000   7.9010000  54.0130000
  23.5670000   9.4880000  55.3280000  23.4330000  10.4310000  55.6910000
  24.6760000   8.7020000  55.8830000  24.7500000   7.7720000  55.3150000
  26.0040000   9.4550000  55.6770000  26.8000000   8.9450000  56.2230000
  25.9160000  10.4630000  56.0810000  26.4620000   9.5380000  54.2220000
  26.0060000   8.8410000  53.3300000  27.4450000  10.3660000  53.9690000
  27.9320000  10.4030000  53.0700000  27.7650000  10.9970000  54.7030000
  24.4190000   8.2640000  57.3420000  25.3450000   7.9030000  58.0740000
  23.1420000   8.2440000  57.7440000  22.4420000   8.5830000  57.0920000
  22.6460000   7.5860000  58.9600000  23.4820000   7.1400000  59.4970000
  21.9420000   8.5790000  59.9100000  21.1240000   9.0180000  59.3390000
  21.3930000   7.9390000  61.1780000  20.6780000   7.1600000  60.9120000
  22.2120000   7.5010000  61.7480000  20.8950000   8.6980000  61.7820000
  22.9320000   9.6630000  60.3010000  23.7490000   9.2210000  60.8720000
  23.3300000  10.1330000  59.4020000  22.4280000  10.4130000  60.9100000
  21.7120000   6.4740000  58.5070000  20.8390000   6.6950000  57.6670000
  21.9150000   5.2740000  59.0440000  22.6160000   5.1850000  59.7810000
  21.1000000   4.1060000  58.7250000  20.4540000   4.3280000  57.8770000
  21.9830000   2.9220000  58.3290000  22.5670000   2.6230000  59.2010000
  21.3250000   2.1070000  58.0470000  22.9430000   3.1800000  57.1620000
  23.6160000   3.9840000  57.4390000  23.7590000   1.9150000  56.9110000
  24.3280000   1.6540000  57.8010000  23.0850000   1.0980000  56.6580000
  24.4510000   2.0810000  56.0890000  22.2220000   3.5480000  55.8600000
  21.4710000   2.7970000  55.6150000  21.7360000   4.5160000  55.9700000
  22.9380000   3.6190000  55.0410000  20.1870000   3.7480000  59.8900000
  20.4890000   4.0440000  61.0470000  19.0850000   3.0650000  59.5950000
  18.8740000   2.8630000  58.6190000  18.0910000   2.6970000  60.5950000
  18.3850000   3.1810000  61.5350000  16.6990000   3.2040000  60.1520000
  16.4040000   2.6560000  59.2580000  15.6580000   2.9510000  61.2440000
  15.6240000   1.8870000  61.4780000  15.9340000   3.5110000  62.1380000
  14.6730000   3.2710000  60.9050000  16.6750000   4.6910000  59.7820000
  17.0310000   5.2700000  60.6230000  17.3100000   4.8810000  58.9160000
  15.6580000   4.9960000  59.5340000  18.0840000   1.1870000  60.8300000
  17.7590000   0.4200000  59.9200000  18.4450000   0.7490000  62.0490000
  18.7890000   1.4130000  62.7280000  18.3910000  -0.6770000  62.4090000
  18.6730000  -1.2920000  61.5540000  19.3250000  -1.0060000  63.5880000
  20.3470000  -0.9790000  63.2180000  19.2140000  -0.2200000  64.3350000
  18.9990000  -2.3510000  64.2420000  18.4180000  -2.1720000  65.1470000
  18.4110000  -2.9490000  63.5450000  20.2500000  -3.1160000  64.6080000
  21.1000000  -2.8010000  64.0020000  20.0930000  -4.1710000  64.3850000
  20.5960000  -2.9760000  66.0550000  20.0450000  -2.1380000  66.4830000
  21.6660000  -2.7980000  66.1590000  20.2310000  -4.2180000  66.7580000
  19.2390000  -4.3810000  66.6600000  20.7410000  -4.9930000  66.3590000
  20.4630000  -4.1310000  67.7370000  16.9600000  -1.0110000  62.7450000
  16.4180000  -2.0310000  62.3180000  16.3800000  -0.1080000  63.5370000
  16.9570000   0.6620000  63.8450000  14.9970000  -0.1170000  64.0050000
  14.3760000  -0.6730000  63.3030000  14.8350000  -0.7690000  65.3990000
  13.7690000  -0.8520000  65.6110000  15.4380000  -2.1580000  65.4290000
  14.9550000  -2.7800000  64.6750000  16.5060000  -2.0950000  65.2190000
  15.2870000  -2.5990000  66.4140000  15.4670000   0.0450000  66.3910000
  16.4010000   0.0950000  66.1730000  14.6510000   1.3640000  64.1830000
  15.5460000   2.2050000  64.3110000  13.3540000   1.7060000  64.1970000
  12.1800000   0.8420000  63.9900000  12.3740000   0.0820000  63.2330000
  11.8720000   0.3600000  64.9180000  11.1530000   1.8350000  63.5210000
  11.3050000   2.1030000  62.4750000  10.1400000   1.4560000  63.6560000
  11.4340000   3.0050000  64.4400000  11.0980000   2.8000000  65.4560000
  10.9590000   3.9160000  64.0770000  12.9520000   3.1070000  64.3700000
  13.3030000   3.7620000  63.5730000  13.5510000   3.7200000  65.6520000
  13.7520000   4.9340000  65.7300000  13.8700000   2.8720000  66.6290000
  13.6910000   1.8860000  66.5010000  14.4690000   3.3250000  67.8750000
  14.2940000   4.4010000  67.8820000  13.7810000   2.6730000  69.0940000
  14.4770000   2.7280000  69.9310000  12.8920000   3.2610000  69.3220000
  13.3470000   1.2210000  68.9540000  13.2680000   0.7870000  69.9510000
  14.1080000   0.6870000  68.3850000  11.9980000   1.0480000  68.2410000
  11.8830000   0.2590000  67.3120000  10.9760000   1.7720000  68.6960000
  11.1130000   2.4120000  69.4650000  10.0640000   1.6810000  68.2720000
  16.0080000   3.1710000  67.9700000  16.6130000   3.4650000  69.0060000
  16.6540000   2.7960000  66.8740000  16.1450000   2.6400000  66.0160000
  18.1000000   2.6090000  66.9100000  18.5150000   3.3240000  67.6200000
  18.4100000   1.1680000  67.3660000  18.0950000   0.4850000  66.5770000
  17.8390000   0.9660000  68.2720000  19.8580000   0.9140000  67.6570000
  20.3120000  -0.2570000  68.2240000  21.6230000  -0.1990000  68.3780000
  22.2470000  -0.9750000  68.7970000  22.0390000   0.9730000  67.9300000
  22.9970000   1.2920000  67.9260000  20.9600000   1.6860000  67.4720000
  20.9830000   2.6770000  67.0440000  18.7680000   2.9060000  65.5580000
  18.6400000   2.1240000  64.6130000  19.4670000   4.0330000  65.4700000
  19.5190000   4.6430000  66.2730000  20.1640000   4.4130000  64.2370000
  19.8990000   3.6580000  63.4970000  19.7140000   5.8010000  63.7090000
  20.1890000   5.9730000  62.7430000  18.2040000   5.8240000  63.5200000
  17.9140000   5.0410000  62.8190000  17.7150000   5.6530000  64.4790000
  17.9020000   6.7950000  63.1260000  20.1620000   6.9210000  64.6550000
  19.7020000   6.7760000  65.6330000  21.2470000   6.8980000  64.7570000
  19.8550000   7.8850000  64.2480000  21.6890000   4.4260000  64.4380000
  22.1690000   4.4550000  65.5800000  22.4340000   4.3980000  63.3250000
  21.9590000   4.3760000  62.4340000  23.9080000   4.3970000  63.3270000
  24.1960000   4.8600000  64.2710000  24.4620000   2.9770000  63.2170000
  24.2380000   2.6100000  62.2210000  25.5420000   3.0300000  63.3530000
  23.9200000   1.9710000  64.2080000  24.0360000   2.3580000  65.2200000
  22.8640000   1.7930000  64.0060000  24.6850000   0.6770000  64.0710000
  25.6720000   0.8030000  64.5160000  24.7950000   0.4270000  63.0140000
  23.9820000  -0.4710000  64.7590000  23.0350000  -0.6680000  64.2560000
  23.7920000  -0.2070000  65.7990000  24.8400000  -1.7050000  64.7070000
  24.4120000  -2.4570000  64.1710000  25.7020000  -1.4960000  64.2230000
  25.0470000  -2.0110000  65.6470000  24.4880000   5.1820000  62.1620000
  23.9220000   5.2170000  61.0680000  25.6580000   5.7600000  62.3860000
  26.0880000   5.6610000  63.2940000  26.3440000   6.5360000  61.3590000
  25.6000000   7.1030000  60.8000000  27.3380000   7.5000000  62.0060000
  28.0680000   6.9140000  62.5650000  28.0450000   8.2990000  60.9580000
  28.5690000   7.6260000  60.2800000  27.3180000   8.8860000  60.3970000
  28.7630000   8.9670000  61.4330000  26.6130000   8.4470000  62.9590000
  25.9720000   9.1090000  62.3770000  26.0010000   7.8580000  63.6420000
  27.5710000   9.2820000  63.7630000  28.2080000   8.6300000  64.3600000
  28.1890000   9.8760000  63.0900000  27.0100000   9.9450000  64.4220000
  27.0310000   5.5460000  60.3850000  27.5430000   4.5180000  60.8360000
  27.0870000   5.8510000  59.0760000  26.6410000   6.7130000  58.7580000
  27.7090000   4.9970000  58.0350000  28.3940000   4.3040000  58.5230000
  26.6300000   4.1390000  57.3450000  25.9380000   3.7880000  58.1090000
  25.8090000   4.8810000  56.2780000  25.1250000   5.5700000  56.7660000
  26.4320000   5.4460000  55.5930000  25.2390000   4.1780000  55.6780000
  27.2400000   2.9880000  56.7920000  26.5510000   2.3560000  56.5600000
  28.5550000   5.7920000  57.0210000  28.7700000   6.9900000  57.2160000
  28.9830000   5.1490000  55.9170000  28.6820000   4.1820000  55.8100000
  29.5920000   5.8550000  54.7690000  29.9570000   5.0570000  54.1200000
  28.5580000   6.5960000  53.8870000  29.0640000   7.3880000  53.3320000
  27.8120000   7.0710000  54.5240000  27.8790000   5.6880000  52.8540000
  28.6120000   5.2410000  51.9340000  26.6660000   5.4150000  52.9980000
  30.8730000   6.6540000  55.0720000  30.9160000   7.8910000  55.0810000
  31.9610000   5.9160000  55.3050000  31.8830000   4.9090000  55.3020000
  33.2350000   6.5040000  55.7090000  33.0040000   7.4440000  56.2070000
  33.8800000   5.6810000  56.7890000  34.0920000   4.6770000  56.4180000
  34.7840000   6.2280000  57.0190000  33.1420000   5.6290000  58.0870000
  33.4460000   6.5720000  59.0830000  34.1880000   7.3410000  58.9260000
  32.7040000   6.5670000  60.2570000  32.8700000   7.3300000  61.0030000
  31.7200000   5.5900000  60.4650000  31.1770000   5.5870000  61.3820000
  31.4340000   4.6270000  59.4880000  30.6640000   3.8860000  59.6540000
  32.1470000   4.6540000  58.2830000  31.9210000   3.9380000  57.5060000
  34.1960000   6.9030000  54.5830000  35.4060000   7.1000000  54.7830000
  33.6410000   6.9900000  53.3730000  32.6390000   6.8880000  53.3030000
  34.3970000   7.2280000  52.1580000  35.0160000   6.3550000  51.9410000
  33.7010000   7.3750000  51.3330000  35.2970000   8.4570000  52.2520000
  36.3080000   8.4780000  51.5690000  34.9940000   9.4400000  53.0860000
  34.1750000   9.3620000  53.6720000  35.8230000  10.6280000  53.1680000
  36.6290000  10.5210000  52.4420000  34.9660000  11.8560000  52.8450000
  34.0510000  11.7580000  53.4300000  35.5270000  12.7250000  53.1900000
  34.5310000  12.1610000  51.3990000  35.4180000  12.5130000  50.8720000
  34.0310000  10.9510000  50.6490000  34.8050000  10.1840000  50.6390000
  33.1400000  10.5610000  51.1410000  33.7860000  11.2340000  49.6250000
  33.4400000  13.2180000  51.4210000  32.5710000  12.8320000  51.9550000
  33.8090000  14.1110000  51.9250000  33.1570000  13.4690000  50.3990000
  36.4850000  10.7950000  54.5290000  37.1970000  11.7910000  54.7620000
  36.2770000   9.8220000  55.4200000  35.7310000   9.0160000  55.1510000
  36.8240000   9.8960000  56.7830000  36.5210000  10.8710000  57.1660000
  36.2460000   8.7740000  57.6430000  35.1580000   8.8330000  57.6340000
  36.5610000   7.8100000  57.2430000  36.6070000   8.8780000  58.6660000
  38.3410000   9.8740000  56.8590000  38.9860000   9.0910000  56.1690000
  38.9070000  10.7230000  57.7120000  38.3150000  11.3350000  58.2550000
  40.3580000  10.8020000  57.8930000  40.8030000   9.9630000  57.3580000
  40.8990000  12.1260000  57.3340000  40.4220000  12.9400000  57.8790000
  41.9740000  12.1510000  57.5120000  40.6620000  12.3610000  55.8280000
  39.6040000  12.2190000  55.6100000  40.9510000  13.3820000  55.5790000
  41.4760000  11.3960000  54.9780000  41.1840000  10.3770000  55.2320000
  42.5330000  11.5380000  55.2050000  41.2670000  11.6050000  53.4790000
  42.0310000  11.0460000  52.9390000  41.3690000  12.6670000  53.2570000
  39.9180000  11.1450000  53.0140000  39.8110000  10.1610000  53.2140000
  39.2000000  11.6670000  53.4960000  39.8350000  11.2980000  52.0190000
  40.7190000  10.7240000  59.3740000  40.0750000  11.3700000  60.1930000
  41.7190000   9.9100000  59.7260000  42.1730000   9.3530000  59.0160000
  42.1750000   9.8050000  61.1190000  41.3220000   9.9590000  61.7800000
  42.7520000   8.4190000  61.4230000  43.6280000   8.2750000  60.7910000
  43.0530000   8.4040000  62.4700000  41.8070000   7.2400000  61.1900000
  40.8190000   7.5010000  61.5710000  41.7340000   6.9550000  59.6960000
  41.3720000   7.8410000  59.1740000  42.7260000   6.6960000  59.3270000
  41.0510000   6.1240000  59.5180000  42.2740000   5.9990000  61.9370000
  43.2620000   5.7100000  61.5790000  42.3220000   6.2140000  63.0040000
  41.5720000   5.1840000  61.7620000  43.2510000  10.8660000  61.3520000
  44.1840000  10.9830000  60.5600000  43.1130000  11.6570000  62.4110000
  42.3210000  11.5310000  63.0250000  44.0830000  12.7020000  62.7010000
  44.5000000  13.0290000  61.7480000  43.4230000  13.8830000  63.4010000
  43.1270000  13.5360000  64.3910000  44.1860000  14.6550000  63.5000000
  42.1960000  14.5530000  62.7850000  41.3670000  13.8450000  62.7760000
  41.8100000  15.7770000  63.6360000  41.5920000  15.4570000  64.6550000
  42.6370000  16.4870000  63.6470000  40.9280000  16.2530000  63.2080000
  42.4610000  14.9540000  61.3510000  43.2870000  15.6640000  61.3190000
  42.7190000  14.0700000  60.7680000  41.5670000  15.4170000  60.9320000
  45.1850000  12.1740000  63.5950000  44.9580000  11.2670000  64.3960000
  46.3700000  12.7700000  63.4760000  46.4850000  13.5160000  62.8050000
  47.5000000  12.3650000  64.2940000  47.6640000  11.2970000  64.1530000
  48.3810000  12.9150000  63.9630000  47.2940000  12.6300000  65.7760000
  46.1800000  12.9040000  66.2290000  48.3670000  12.5080000  66.5460000
  49.2520000  12.2530000  66.1330000  48.2820000  12.7380000  67.9790000
  47.3530000  12.3090000  68.3550000  49.4450000  12.0630000  68.6950000
  49.4210000  10.9910000  68.4970000  50.3850000  12.4780000  68.3320000
  49.3610000  12.2360000  69.7680000  48.2920000  14.2300000  68.2520000
  47.4760000  14.7350000  69.0190000  49.2270000  14.9300000  67.6230000
  49.8700000  14.4560000  67.0050000  49.3420000  16.3680000  67.8070000
  48.7580000  16.6600000  68.6800000  50.8090000  16.7580000  68.0520000
  51.3700000  16.5540000  67.1400000  50.8430000  17.8260000  68.2680000
  51.4960000  16.0160000  69.2090000  52.4980000  16.4260000  69.3370000
  51.5660000  14.9590000  68.9500000  50.7470000  16.1430000  70.5340000
  50.6420000  17.2740000  71.0670000  50.2670000  15.1030000  71.0430000
  48.7900000  17.0980000  66.5870000  49.1090000  18.2650000  66.3460000
  47.9740000  16.3900000  65.8100000  47.7730000  15.4320000  66.0600000
  47.3590000  16.9480000  64.6100000  47.9670000  17.7540000  64.2000000
  47.2410000  15.8610000  63.5420000  48.1350000  15.2390000  63.5950000
  46.3640000  15.2570000  63.7730000  47.1030000  16.3620000  62.1190000
  48.0160000  16.8900000  61.8430000  46.2570000  17.0480000  62.0690000
  46.8740000  15.2290000  61.1290000  47.8230000  14.4690000  60.8420000
  45.7370000  15.0930000  60.6400000  45.9780000  17.4980000  64.9950000
  45.1670000  16.7960000  65.6040000  45.7220000  18.7570000  64.6470000
  46.4190000  19.2730000  64.1300000  44.4620000  19.4160000  64.9910000
  44.0150000  18.8000000  65.7720000  44.7410000  20.8410000  65.4770000
  43.7960000  21.2990000  65.7690000  45.4020000  20.7890000  66.3420000
  45.4010000  21.7210000  64.4100000  46.3110000  21.2290000  64.0660000
  44.7100000  21.8330000  63.5740000  45.7640000  23.1060000  64.9300000
  46.4820000  23.0030000  65.7440000  44.8620000  23.5930000  65.3010000
  46.3830000  23.9740000  63.8250000  46.6390000  24.9430000  64.2530000
  45.6400000  24.1090000  63.0390000  47.6200000  23.3880000  63.2100000
  48.3210000  23.2550000  63.9250000  47.3970000  22.4980000  62.7880000
  47.9750000  24.0160000  62.5030000  43.4560000  19.4840000  63.8560000
  42.2600000  19.5910000  64.0950000  43.9390000  19.4550000  62.6200000
  44.9340000  19.3680000  62.4730000  43.0460000  19.5480000  61.4760000
  42.1390000  19.0180000  61.7680000  42.7420000  21.0190000  61.1600000
  42.1230000  21.0520000  60.2640000  42.1880000  21.4380000  62.0000000
  43.9670000  21.8910000  60.9200000  44.3860000  21.6410000  59.9450000
  44.7020000  21.6790000  61.6960000  43.6500000  23.3870000  60.9450000
  42.9420000  23.8350000  61.8790000  44.1210000  24.1160000  60.0400000
  43.5610000  18.8640000  60.2300000  44.7610000  18.6590000  60.0670000
  42.6310000  18.5170000  59.3510000  41.6620000  18.7100000  59.5620000
  42.9580000  17.8720000  58.1020000  43.9930000  17.5330000  58.1480000
  42.0610000  16.6570000  57.8720000  42.3510000  15.8730000  58.5720000
  41.0270000  16.9480000  58.0600000  42.1590000  16.1090000  56.4670000
  43.2130000  15.2710000  56.0880000  43.9570000  14.9870000  56.8180000
  43.3170000  14.7940000  54.7730000  44.1350000  14.1490000  54.4890000
  42.3540000  15.1610000  53.8380000  42.4320000  14.7060000  52.5460000
  43.2290000  14.9580000  52.0750000  41.3000000  15.9900000  54.1980000
  40.5550000  16.2700000  53.4680000  41.2100000  16.4570000  55.5030000
  40.3890000  17.1030000  55.7780000  42.8050000  18.8560000  56.9550000
  41.8000000  19.5530000  56.8520000  43.8000000  18.8660000  56.0720000
  44.5770000  18.2360000  56.2120000  43.8170000  19.7460000  54.9120000
  43.0760000  20.5390000  55.0080000  45.1940000  20.4000000  54.7890000
  45.1400000  21.1770000  54.0270000  45.9110000  19.6390000  54.4820000
  45.6770000  21.0200000  56.0670000  45.6700000  22.3820000  56.2830000
  45.3810000  23.0780000  55.6110000  46.1010000  22.6340000  57.5070000
  46.2000000  23.6130000  57.9530000  46.3900000  21.4840000  58.0920000
  46.7400000  21.3760000  59.0330000  46.1370000  20.4590000  57.2120000
  46.2780000  19.4050000  57.3980000  43.5090000  18.9010000  53.6900000
  44.3090000  18.0600000  53.2970000  42.3360000  19.1210000  53.1050000
  41.7350000  19.8410000  53.4800000  41.8820000  18.3640000  51.9420000
  42.1850000  17.3340000  52.1310000  40.3790000  18.4660000  51.8130000
  39.9110000  18.1260000  52.7370000  40.1000000  19.5030000  51.6250000
  40.0420000  17.8430000  50.9850000  42.5480000  18.7400000  50.6280000
  43.4130000  19.6140000  50.5840000  42.1070000  18.0840000  49.5570000
  41.3680000  17.4050000  49.6740000  42.6470000  18.3060000  48.2240000
  43.2210000  19.2320000  48.2540000  43.5850000  17.1440000  47.8330000
  43.9670000  17.3490000  46.8330000  44.4120000  17.1330000  48.5430000
  42.9590000  15.7240000  47.8170000  43.7100000  15.0240000  47.4510000
  42.1080000  15.7340000  47.1360000  42.4710000  15.2320000  49.1890000
  43.2860000  15.2170000  50.1360000  41.2810000  14.8540000  49.3200000
  41.5550000  18.5170000  47.1700000  41.1180000  19.6440000  46.9440000
  41.0990000  17.4300000  46.5550000  41.4710000  16.5270000  46.8120000
  40.0790000  17.5080000  45.5230000  40.4300000  18.2110000  44.7680000
  39.9850000  16.5160000  45.0800000  38.6910000  17.9510000  45.9480000
  38.3270000  17.9020000  47.1300000  37.9110000  18.3790000  44.9580000
  38.2710000  18.3850000  44.0140000  36.5540000  18.8380000  45.2010000
  36.4780000  19.1520000  46.2420000  36.3560000  19.6890000  44.5490000
  35.4980000  17.7780000  44.9410000  34.9750000  17.6500000  43.8300000
  35.1710000  17.0240000  45.9810000  35.6260000  17.1820000  46.8690000
  34.1730000  15.9770000  45.8700000  33.5150000  16.2050000  45.0310000
  34.8570000  14.6290000  45.6100000  34.0910000  13.8540000  45.6130000
  35.3280000  14.6710000  44.6280000  35.9280000  14.2450000  46.6360000
  36.7800000  14.9160000  46.5290000  35.5120000  14.3440000  47.6390000
  36.3970000  12.8060000  46.4300000  36.8330000  12.7160000  45.4350000
  35.5380000  12.1400000  46.5120000  37.4410000  12.3980000  47.4660000
  37.0710000  12.6520000  48.4590000  38.3640000  12.9450000  47.2720000
  37.7280000  10.9300000  47.4160000  36.8780000  10.4150000  47.5950000
  38.0830000  10.6870000  46.5020000  38.4170000  10.6980000  48.1170000
  33.3250000  15.9110000  47.1360000  32.6590000  14.9070000  47.3980000
  33.3450000  16.9930000  47.9080000  33.8990000  17.7890000  47.6250000
  32.5880000  17.0610000  49.1540000  32.3380000  16.0380000  49.4360000
  33.4410000  17.7100000  50.2800000  33.5180000  18.7780000  50.0750000
  32.7770000  17.5240000  51.6390000  31.7830000  17.9720000  51.6220000
  32.6920000  16.4600000  51.8590000  33.3810000  18.0070000  52.4070000
  34.8280000  17.1040000  50.3000000  34.7550000  16.0360000  50.5050000
  35.3050000  17.2560000  49.3320000  35.4230000  17.5830000  51.0780000
  31.2820000  17.8470000  48.9790000  31.2420000  18.8310000  48.2420000
  30.1780000  17.3640000  49.5830000  30.0480000  16.0780000  50.2840000
  29.9370000  15.2520000  49.5810000  30.9050000  15.8910000  50.9310000
  28.8000000  16.2870000  51.0800000  28.3570000  15.3360000  51.3740000
  28.9960000  16.8870000  51.9690000  27.9280000  17.0110000  50.1280000
  27.1080000  17.5060000  50.6480000  27.5250000  16.3340000  49.3750000
  28.8730000  18.0310000  49.4980000  28.5560000  18.3000000  48.4900000
  28.9290000  19.3520000  50.2700000  29.1040000  19.3870000  51.4930000
  28.7890000  20.4310000  49.5130000  28.6040000  20.2970000  48.5290000
  28.8850000  21.7940000  50.0080000  29.8150000  21.7980000  50.5770000
  28.9190000  22.7760000  48.8080000  27.9590000  22.7420000  48.2940000
  29.1740000  24.2100000  49.2940000  28.3800000  24.5080000  49.9780000
  30.1330000  24.2540000  49.8100000  29.1900000  24.8860000  48.4390000
  30.0560000  22.3610000  47.8580000  30.9330000  22.9620000  48.0990000
  30.2770000  21.3090000  48.0370000  29.7610000  22.5340000  46.3740000
  28.9050000  21.9180000  46.0990000  29.5360000  23.5800000  46.1680000
  30.6310000  22.2280000  45.7930000  27.8630000  22.2530000  51.0350000
  28.2170000  22.9440000  51.9990000  26.6120000  21.8430000  50.8530000
  26.3990000  21.2330000  50.0770000  25.5480000  22.2540000  51.7470000
  25.7590000  23.3070000  51.9350000  24.2040000  22.0730000  51.0630000
  24.1290000  21.0480000  50.6990000  23.4120000  22.2600000  51.7880000
  24.0290000  23.0330000  49.8790000  24.0920000  24.0600000  50.2380000
  24.8210000  22.8530000  49.1520000  22.6860000  22.8200000  49.2150000
  21.8990000  23.1090000  49.9110000  22.5800000  21.7650000  48.9640000
  22.5470000  23.6390000  47.9520000  23.3760000  23.4090000  47.2830000
  22.5690000  24.6980000  48.2080000  21.2520000  23.3260000  47.2580000
  21.2270000  22.3450000  47.0190000  20.4800000  23.5430000  47.8720000
  21.1790000  23.8800000  46.4160000  25.5420000  21.6880000  53.1700000
  24.6170000  21.9570000  53.9430000  26.5690000  20.9100000  53.5130000
  27.2790000  20.7040000  52.8250000  26.6980000  20.3490000  54.8470000
  25.8700000  20.7520000  55.4300000  26.6290000  18.8380000  54.8180000
  27.1900000  18.4880000  53.9510000  27.0930000  18.4590000  55.7280000
  25.2850000  18.2970000  54.7360000  24.5680000  17.7890000  55.7630000
  24.9040000  17.7390000  56.7880000  23.3390000  17.3420000  55.3080000
  22.6220000  16.9190000  55.8800000  23.2510000  17.5650000  53.9580000
  22.2130000  17.2750000  53.0550000  21.2910000  16.8240000  53.3900000
  22.4130000  17.5860000  51.7290000  21.6340000  17.3740000  51.0120000
  23.6150000  18.1760000  51.2890000  23.7450000  18.4030000  50.2410000
  24.6530000  18.4750000  52.2020000  25.5700000  18.9330000  51.8620000
  24.4680000  18.1650000  53.5560000  28.0140000  20.7310000  55.4770000
  28.2930000  20.3290000  56.6070000  28.8290000  21.5090000  54.7750000
  28.5520000  21.8500000  53.8660000  30.1200000  21.8630000  55.3270000
  30.1720000  21.1940000  56.1860000  31.2470000  21.5850000  54.3180000
  31.4610000  20.5170000  54.3470000  32.1260000  22.1400000  54.6440000
  30.9740000  21.9620000  52.8650000  31.2600000  23.0030000  52.7120000
  29.9090000  21.8450000  52.6660000  31.9200000  20.9060000  51.6850000
  33.5810000  21.5330000  51.9070000  33.6060000  22.5930000  51.6550000
  33.8840000  21.4000000  52.9460000  34.2650000  20.9880000  51.2560000
  30.3050000  23.2020000  55.9940000  29.6840000  24.1930000  55.6290000
  31.1560000  23.2030000  57.0130000  31.5940000  22.3340000  57.2830000
  31.4780000  24.4090000  57.7520000  30.6000000  24.7830000  58.2790000
  32.5560000  24.1210000  58.7800000  32.1940000  23.3740000  59.4860000
  33.4470000  23.7440000  58.2770000  32.8020000  25.0380000  59.3150000
  31.9860000  25.4240000  56.7480000  32.4010000  25.0480000  55.6640000
  31.9280000  26.7060000  57.1060000  31.5540000  26.9440000  58.0140000
  32.3880000  27.7790000  56.2280000  31.8510000  27.7050000  55.2820000
  32.1060000  29.1410000  56.8550000  31.0420000  29.1890000  57.0860000
  32.6820000  29.2100000  57.7780000  32.4550000  30.3580000  55.9910000
  33.4880000  30.2800000  55.6520000  31.5530000  30.4030000  54.7510000
  31.6910000  29.4920000  54.1680000  30.5110000  30.4810000  55.0620000
  31.8160000  31.2670000  54.1410000  32.3070000  31.6340000  56.8230000
  31.2770000  31.7250000  57.1690000  32.9760000  31.5870000  57.6820000
  32.5630000  32.4990000  56.2110000  33.8850000  27.6400000  55.9820000
  34.3360000  27.7070000  54.8440000  34.6450000  27.4190000  57.0550000
  34.2050000  27.3530000  57.9610000  36.0940000  27.2700000  56.9600000
  36.4740000  28.1750000  56.4870000  36.7380000  27.1510000  58.3500000
  37.8180000  27.2200000  58.2230000  36.3880000  27.9900000  58.9520000
  36.4400000  25.8650000  59.1230000  37.2630000  25.6850000  59.8150000
  36.3800000  25.0440000  58.4090000  35.1340000  25.8970000  59.9280000
  34.2970000  26.8060000  59.7300000  34.9420000  24.9800000  60.7580000
  36.4920000  26.0830000  56.0730000  37.6030000  26.0370000  55.5500000
  35.5870000  25.1290000  55.8990000  34.6900000  25.1940000  56.3590000
  35.8830000  24.0000000  55.0530000  36.8700000  23.6120000  55.3040000
  34.8650000  22.8710000  55.2690000  35.0300000  22.0960000  54.5210000
  33.8580000  23.2740000  55.1590000  34.9960000  22.2980000  56.5680000
  35.8880000  21.9500000  56.6430000  35.8550000  24.4570000  53.6050000
  36.7650000  24.1530000  52.8360000  34.8240000  25.2200000  53.2500000
  34.1440000  25.4700000  53.9540000  34.6300000  25.7150000  51.8830000
  34.7380000  24.8410000  51.2410000  33.2300000  26.3550000  51.7130000
  33.1590000  27.1990000  52.3990000  33.0400000  26.8650000  50.2910000
  33.8150000  27.5960000  50.0600000  33.1090000  26.0300000  49.5930000
  32.0600000  27.3340000  50.2010000  32.1330000  25.3460000  52.0560000
  32.1900000  24.5190000  51.3490000  32.3080000  24.9740000  53.0650000
  30.7350000  25.9380000  51.9950000  30.6550000  26.7550000  52.7120000
  30.5440000  26.3150000  50.9900000  30.0030000  25.1680000  52.2390000
  35.6590000  26.7590000  51.4850000  36.0310000  26.8760000  50.3190000
  36.1020000  27.5250000  52.4670000  35.7640000  27.3700000  53.4060000
  37.0590000  28.5780000  52.2240000  36.9220000  28.8710000  51.1830000
  36.7790000  29.7680000  53.1560000  36.5130000  29.3570000  54.1300000
  37.7070000  30.3330000  53.2420000  35.6740000  30.7690000  52.7700000
  35.5420000  31.4540000  53.6070000  36.0880000  31.5390000  51.5330000
  37.0280000  32.0570000  51.7250000  36.2180000  30.8470000  50.7010000
  35.3160000  32.2670000  51.2830000  34.3490000  30.0830000  52.5260000
  34.4480000  29.3890000  51.6920000  34.0530000  29.5360000  53.4210000
  33.5910000  30.8300000  52.2890000  38.5150000  28.1480000  52.3310000
  39.3570000  28.6390000  51.5750000  38.8220000  27.2400000  53.2530000
  38.0920000  26.8480000  53.8300000  40.2040000  26.8030000  53.4400000
  40.7380000  27.2380000  52.5950000  40.7300000  27.3070000  54.7910000
  41.7780000  27.0210000  54.8770000  40.1560000  26.8250000  55.5820000
  40.6310000  28.7910000  54.9770000  40.1700000  29.6420000  53.9970000
  39.8340000  29.3390000  53.0160000  40.2020000  30.8850000  54.4420000
  39.8990000  31.7620000  53.8900000  40.6680000  30.8720000  55.6790000
  40.9430000  29.5760000  56.0390000  41.3340000  29.2440000  56.9890000
  40.4560000  25.2950000  53.3500000  41.5840000  24.8420000  53.5570000
  39.4250000  24.5210000  53.0290000  38.5320000  24.9490000  52.8320000
  39.5480000  23.0640000  52.9530000  38.5530000  22.6800000  52.7290000
  40.5040000  22.6330000  51.8300000  41.4380000  23.1810000  51.9570000
  40.6910000  21.5650000  51.9410000  40.0070000  22.8760000  50.4080000
  39.7660000  23.9320000  50.2850000  39.1140000  22.2770000  50.2300000
  41.0890000  22.4830000  49.4040000  41.2200000  21.4020000  49.4440000
  42.0200000  22.9730000  49.6910000  40.7720000  22.8610000  48.0260000
  39.8050000  23.0410000  47.7980000  41.6730000  22.9840000  47.0530000
  42.9590000  22.7640000  47.2890000  43.6330000  22.8620000  46.5430000
  43.2640000  22.4980000  48.2140000  41.2850000  23.3320000  45.8350000
  40.3080000  23.5030000  45.6460000  41.9660000  23.4260000  45.0950000
  40.0190000  22.4660000  54.2900000  40.6470000  21.4010000  54.3110000
  39.7630000  23.1770000  55.3910000  39.3030000  24.0710000  55.2990000
  40.1270000  22.7030000  56.7280000  41.0140000  22.0770000  56.6290000
  40.4560000  23.8760000  57.6850000  39.5660000  24.5000000  57.7700000
  40.8290000  23.3470000  59.0590000  40.0040000  22.7550000  59.4570000
  41.7190000  22.7220000  58.9790000  41.0310000  24.1840000  59.7280000
  41.5940000  24.7300000  57.1330000  41.3590000  24.9920000  56.1020000
  41.6650000  25.6380000  57.7320000  42.9170000  24.0470000  57.1550000
  43.1790000  23.7960000  58.1830000  42.8650000  23.1350000  56.5600000
  43.6750000  24.7100000  56.7380000  38.9420000  21.9050000  57.3240000
  37.7710000  22.2710000  57.1450000  39.2500000  20.7950000  57.9930000
  40.2200000  20.5250000  58.0740000  38.2290000  19.9570000  58.6130000
  37.3080000  20.5380000  58.6530000  37.9870000  18.7110000  57.7920000
  38.9350000  18.1900000  57.6630000  37.2900000  18.0690000  58.3310000
  37.4170000  19.0080000  56.4410000  38.2170000  19.5620000  55.4380000
  39.2440000  19.8120000  55.6590000  37.7240000  19.7960000  54.1720000
  38.3600000  20.2290000  53.4140000  36.4170000  19.4750000  53.8770000
  35.9560000  19.6990000  52.6060000  35.0410000  19.4490000  52.4560000
  35.5860000  18.9220000  54.8530000  34.5620000  18.6700000  54.6200000
  36.0960000  18.6970000  56.1390000  35.4570000  18.2780000  56.9020000
  38.6170000  19.5750000  60.0250000  39.7670000  19.2750000  60.3110000
  37.6490000  19.5900000  60.9230000  36.7060000  19.8200000  60.6430000
  37.9360000  19.2770000  62.3090000  38.8230000  18.6480000  62.3810000
  38.1540000  20.5810000  63.0840000  38.2000000  20.3480000  64.1480000
  39.4750000  21.2660000  62.6750000  40.3100000  20.5930000  62.8730000
  39.4460000  21.5060000  61.6120000  39.6030000  22.1820000  63.2510000
  37.0680000  21.4730000  62.7870000  37.4430000  22.2670000  62.4000000
  36.7230000  18.5870000  62.8840000  35.7310000  18.3760000  62.1810000
  36.8190000  18.1740000  64.1410000  37.6910000  18.2800000  64.6400000
  35.6720000  17.5670000  64.8070000  35.3410000  16.6720000  64.2800000
  36.0310000  17.1300000  66.2370000  35.1220000  16.7850000  66.7300000
  36.4290000  17.9930000  66.7710000  37.0450000  16.0310000  66.2910000
  38.1510000  15.8720000  67.0580000  38.5120000  16.5560000  67.8110000
  38.7260000  14.6800000  66.6990000  39.6250000  14.2640000  67.1280000
  38.0040000  14.1230000  65.7440000  36.9830000  14.9190000  65.4810000
  36.2170000  14.7270000  64.7440000  34.5750000  18.6520000  64.8360000
  33.4120000  18.3630000  64.5400000  34.9890000  19.9020000  65.0970000
  35.9720000  20.0590000  65.2680000  34.0800000  21.0460000  65.1450000
  33.2740000  20.7870000  65.8320000  34.7870000  22.2940000  65.6870000
  35.6990000  22.4480000  65.1100000  34.1240000  23.1480000  65.5530000
  35.1650000  22.2060000  67.1730000  35.4570000  23.1980000  67.5170000
  36.0070000  21.5220000  67.2780000  34.0140000  21.7030000  68.0490000
  34.0750000  20.6040000  68.6090000  32.9480000  22.4970000  68.1470000
  32.1510000  22.2070000  68.6950000  32.9370000  23.3890000  67.6730000
  33.4500000  21.3270000  63.7840000  32.3770000  21.9190000  63.6800000
  34.1140000  20.8650000  62.7380000  34.9900000  20.3840000  62.8830000
  33.6120000  21.0340000  61.3820000  33.2850000  22.0580000  61.2000000
  34.7180000  20.7060000  60.3680000  35.0710000  19.6890000  60.5390000
  35.5440000  21.4040000  60.5000000  34.2260000  20.8120000  59.0470000
  34.7490000  21.4790000  58.5950000  32.4720000  20.0430000  61.2360000
  31.5150000  20.2730000  60.4960000  32.6030000  18.9180000  61.9350000
  33.4260000  18.7820000  62.5050000  31.5860000  17.8830000  61.8940000
  31.3230000  17.6910000  60.8540000  32.1250000  16.5650000  62.4850000
  31.2870000  15.9940000  62.8860000  32.8210000  16.8030000  63.2900000
  32.8560000  15.7000000  61.4410000  32.8910000  16.0780000  60.2440000
  33.3770000  14.6200000  61.8110000  30.3240000  18.3490000  62.6160000
  29.2060000  17.9670000  62.2380000  30.5050000  19.1840000  63.6440000
  31.4420000  19.4500000  63.9090000  29.3770000  19.7130000  64.3840000
  28.8050000  18.8700000  64.7720000  29.8240000  20.5280000  65.5830000
  30.4740000  21.3410000  65.2590000  28.5950000  21.1330000  66.2780000
  28.0630000  21.7780000  65.5790000  27.9340000  20.3320000  66.6090000
  28.9160000  21.7180000  67.1400000  30.6070000  19.6300000  66.5460000
  29.9690000  18.8110000  66.8790000  31.4810000  19.2250000  66.0360000
  30.9280000  20.2150000  67.4080000  28.4640000  20.5260000  63.4600000
  27.2420000  20.3440000  63.4910000  29.0520000  21.3640000  62.6020000
  30.0560000  21.4690000  62.6180000  28.2610000  22.1350000  61.6360000
  27.6730000  22.8730000  62.1820000  29.1560000  22.8630000  60.6340000
  29.8510000  23.4920000  61.1900000  29.7140000  22.1170000  60.0690000
  28.4000000  23.7430000  59.6470000  27.4700000  23.3470000  58.7160000
  27.1500000  22.3280000  58.5560000  27.0050000  24.4380000  58.0160000
  26.3200000  24.4140000  57.2740000  27.6290000  25.5650000  58.4950000
  27.4820000  26.9010000  58.1200000  26.7930000  27.1930000  57.3410000
  28.2480000  27.8300000  58.7800000  28.1570000  28.8730000  58.5130000
  29.1400000  27.4610000  59.7860000  29.7290000  28.2200000  60.2790000
  29.2820000  26.1410000  60.1610000  29.9730000  25.8640000  60.9430000
  28.5160000  25.1660000  59.5110000  27.3830000  21.1670000  60.8610000
  26.1820000  21.3670000  60.7240000  27.9960000  20.1080000  60.3510000
  28.9890000  19.9940000  60.4940000  27.2670000  19.1110000  59.5920000
  26.7650000  19.6070000  58.7620000  28.2180000  18.0680000  59.0090000
  27.6840000  17.4630000  58.2760000  28.5850000  17.4270000  59.8110000
  29.3210000  18.7090000  58.3760000  28.9710000  19.2650000  57.6760000
  26.2260000  18.4550000  60.4640000  25.1500000  18.0940000  59.9670000
  26.5410000  18.2650000  61.7520000  27.4530000  18.5290000  62.0960000
  25.5560000  17.6730000  62.6580000  25.2630000  16.6960000  62.2730000
  26.1400000  17.4420000  64.0520000  26.9280000  16.6940000  63.9730000
  26.5650000  18.3820000  64.4050000  25.1200000  16.9580000  65.0850000
  24.8890000  15.5990000  65.2870000  25.4100000  14.8770000  64.6750000
  23.9960000  15.1500000  66.2660000  23.8390000  14.0920000  66.4130000
  23.3130000  16.0710000  67.0480000  22.4180000  15.6260000  67.9870000
  22.3350000  14.6720000  68.0480000  23.5160000  17.4320000  66.8710000
  22.9840000  18.1470000  67.4820000  24.4190000  17.8710000  65.8910000
  24.5780000  18.9300000  65.7540000  24.3190000  18.6030000  62.7260000
  23.1840000  18.1280000  62.6970000  24.5520000  19.9180000  62.7720000
  25.5050000  20.2520000  62.7830000  23.4580000  20.8790000  62.8060000
  22.8760000  20.7170000  63.7130000  23.8750000  21.8860000  62.8160000
  22.5410000  20.7400000  61.6030000  21.3000000  20.6710000  61.7400000
  23.1480000  20.6940000  60.4190000  24.1550000  20.7660000  60.3770000
  22.3930000  20.5420000  59.1820000  21.6920000  21.3750000  59.1250000
  23.3130000  20.5860000  57.9640000  24.0490000  19.7850000  58.0320000
  22.5000000  20.3870000  56.7050000  21.9950000  19.4220000  56.7470000
  21.7580000  21.1810000  56.6220000  23.1600000  20.4140000  55.8380000
  24.0450000  21.9050000  57.9260000  23.3230000  22.7190000  57.8580000
  24.6370000  22.0190000  58.8340000  24.7040000  21.9300000  57.0580000
  21.6190000  19.2250000  59.1800000  20.4490000  19.1750000  58.7780000
  22.2720000  18.1610000  59.6430000  23.2310000  18.2650000  59.9440000
  21.6390000  16.8460000  59.7280000  21.3660000  16.5430000  58.7170000
  22.5960000  15.7860000  60.3100000  22.8220000  16.0500000  61.3430000
  21.9510000  14.4100000  60.2780000  21.0310000  14.4260000  60.8620000
  21.7220000  14.1400000  59.2470000  22.6370000  13.6770000  60.7020000
  23.7950000  15.7530000  59.5310000  24.1890000  16.6280000  59.5670000
  20.4050000  16.9350000  60.6190000  19.3910000  16.3130000  60.3350000
  20.5180000  17.6860000  61.7150000  21.4060000  18.1280000  61.9080000
  19.4180000  17.8980000  62.6470000  19.0440000  16.9420000  63.0150000
  19.9040000  18.7050000  63.8690000  20.5200000  19.5320000  63.5160000
  18.7280000  19.2710000  64.6400000  18.1420000  19.9170000  63.9860000
  18.1020000  18.4540000  65.0000000  19.0940000  19.8490000  65.4890000
  20.7320000  17.7940000  64.7930000  20.1100000  16.9700000  65.1430000
  21.5850000  17.3970000  64.2430000  21.0870000  18.3700000  65.6480000
  18.2850000  18.6320000  61.9060000  17.1200000  18.2420000  61.9910000
  18.6440000  19.6470000  61.1230000  19.6190000  19.9040000  61.0690000
  17.6630000  20.4020000  60.3370000  16.9420000  20.8590000  61.0150000
  18.3960000  21.4700000  59.5460000  19.0670000  21.9950000  60.2250000
  18.9790000  20.9770000  58.7680000  17.5280000  22.4610000  58.9060000
  17.1270000  23.6540000  59.4300000  17.4160000  24.0330000  60.3990000
  16.3040000  24.3010000  58.5480000  15.8700000  25.2000000  58.7040000
  16.1620000  23.5360000  57.4210000  15.4330000  23.7780000  56.2480000
  14.8530000  24.6810000  56.1260000  15.4830000  22.8290000  55.2630000
  14.9330000  22.9870000  54.3470000  16.2380000  21.6510000  55.4200000
  16.2560000  20.9220000  54.6230000  16.9660000  21.4070000  56.5910000
  17.5430000  20.5010000  56.7050000  16.9290000  22.3650000  57.6110000
  16.8810000  19.4830000  59.3810000  15.6540000  19.5670000  59.2780000
  17.5840000  18.5890000  58.6890000  18.5870000  18.5460000  58.7980000
  16.9150000  17.6710000  57.7740000  16.4450000  18.2710000  56.9950000
  17.9110000  16.7140000  57.1450000  18.4760000  16.2400000  57.9480000
  17.3510000  15.9560000  56.5980000  18.8980000  17.3470000  56.1890000
  19.3740000  18.1960000  56.6800000  18.3640000  17.6920000  55.3040000
  19.9620000  16.3610000  55.7690000  19.6600000  15.4680000  54.9430000
  21.1000000  16.4700000  56.2820000  15.8540000  16.8600000  58.5050000
  14.7450000  16.6670000  57.9980000  16.1950000  16.3830000  59.6970000
  17.1180000  16.5700000  60.0610000  15.2630000  15.5980000  60.4840000
  14.8880000  14.8010000  59.8420000  15.9800000  15.0020000  61.6840000
  16.2990000  15.8260000  62.3230000  15.2650000  14.3810000  62.2230000
  17.2090000  14.1430000  61.3820000  17.9600000  14.7250000  60.8470000
  17.7940000  13.6600000  62.7000000  18.0890000  14.5190000  63.3030000
  17.0460000  13.0780000  63.2380000  18.6670000  13.0370000  62.5040000
  16.8100000  12.9700000  60.5020000  16.0580000  12.3700000  61.0150000
  16.4000000  13.3430000  59.5640000  17.6860000  12.3550000  60.2960000
  14.0390000  16.4080000  60.9420000  12.9060000  15.9800000  60.7230000
  14.2610000  17.5800000  61.5470000  15.2120000  17.8970000  61.6700000
  13.1540000  18.4240000  62.0400000  12.5870000  17.7770000  62.7090000
  13.6660000  19.6350000  62.8240000  12.8040000  20.2110000  63.1610000
  14.2700000  20.2450000  62.1520000  14.5150000  19.2900000  64.0450000
  14.6600000  20.1960000  64.6330000  15.4810000  18.9210000  63.7010000
  13.7660000  18.0350000  65.1030000  15.1330000  17.6560000  66.2890000
  15.9990000  17.2870000  65.7390000  15.4050000  18.5620000  66.8310000
  14.8000000  16.8960000  66.9960000  12.1980000  18.8860000  60.9440000
  11.0170000  19.1120000  61.2110000  12.7180000  19.0270000  59.7220000
  13.7030000  18.8480000  59.5920000  11.9160000  19.4320000  58.5580000
  11.1170000  20.0560000  58.9580000  12.7410000  20.2050000  57.5400000
  12.1130000  20.4270000  56.6780000  13.2310000  21.5020000  58.1220000
  12.3780000  22.1070000  58.4300000  13.8620000  21.2970000  58.9870000
  13.8080000  22.0420000  57.3710000  13.8650000  19.4090000  57.1430000
  14.3900000  19.2360000  57.9280000  11.3510000  18.2140000  57.8180000
  10.7510000  18.3620000  56.7650000  11.5750000  17.0190000  58.3690000
  12.0910000  16.9860000  59.2370000  11.1190000  15.7530000  57.7930000
  11.5150000  14.9990000  58.4740000   9.5900000  15.6770000  57.7610000
   9.2170000  16.4870000  57.1340000   9.3010000  14.7190000  57.3280000
   8.9600000  15.7950000  59.1090000   8.9120000  14.7060000  59.9580000
   9.2760000  13.7480000  59.6180000   8.3920000  14.8300000  61.2670000
   8.3620000  13.9710000  61.9210000   7.9200000  16.0600000  61.7100000
   7.5240000  16.1640000  62.7090000   7.9630000  17.1600000  60.8500000
   7.5980000  18.1200000  61.1840000   8.4770000  17.0210000  59.5600000
   8.5010000  17.8770000  58.9020000  11.7130000  15.3800000  56.4260000
  11.0840000  14.6750000  55.6410000  12.9320000  15.8340000  56.1550000
  13.4090000  16.4260000  56.8200000  13.5780000  15.4810000  54.9060000
  14.5790000  15.1300000  55.1550000  13.0040000  14.6630000  54.4720000
  13.7340000  16.5300000  53.8290000  13.8810000  16.1860000  52.6630000
  13.7430000  17.8010000  54.2000000  13.6560000  18.0390000  55.1780000
  13.8770000  18.8590000  53.2070000  13.2800000  18.5630000  52.3440000
  13.3430000  20.1840000  53.7550000  13.4950000  20.9680000  53.0130000
  13.8810000  20.4390000  54.6680000  11.9590000  20.0750000  54.0430000
  11.8530000  19.3830000  54.7000000  15.3120000  19.0250000  52.7320000
  16.2620000  18.6810000  53.4380000  15.4610000  19.5330000  51.5140000
  14.6410000  19.7740000  50.9770000  16.7770000  19.7500000  50.9360000
  17.4790000  18.9760000  51.2440000  16.6900000  19.6990000  49.3980000
  16.0540000  20.5180000  49.0640000  17.6940000  19.8310000  48.9940000
  16.1110000  18.3750000  48.8410000  16.9160000  17.6420000  48.7880000
  15.3420000  18.0200000  49.5270000  15.4860000  18.5130000  47.4380000
  14.6610000  19.2230000  47.4900000  15.1080000  17.5400000  47.1250000
  16.5000000  19.0080000  46.3970000  17.2520000  18.2320000  46.2590000
  16.9740000  19.9090000  46.7860000  15.9100000  19.3320000  45.0540000
  15.4640000  18.5090000  44.6750000  15.2260000  20.0690000  45.1550000
  16.6430000  19.6360000  44.4290000  17.2570000  21.1090000  51.4170000
  16.5670000  22.1100000  51.2560000  18.4050000  21.1470000  52.0980000
  19.2210000  20.0140000  52.5550000  18.8320000  19.5940000  53.4830000
  19.2750000  19.2330000  51.7970000  20.5540000  20.6600000  52.7660000
  21.1660000  20.0780000  53.4550000  21.0850000  20.7790000  51.8210000
  20.1940000  22.0100000  53.3630000  20.9960000  22.7310000  53.2060000
  19.9890000  21.9210000  54.4300000  18.9300000  22.4210000  52.5940000
  18.2200000  22.9570000  53.2240000  19.2150000  23.4010000  51.4690000
  19.9340000  23.0840000  50.5240000  18.6490000  24.6020000  51.5990000
  18.0960000  24.7790000  52.4260000  18.7810000  25.6790000  50.6150000
  18.2110000  26.5460000  50.9500000  20.2410000  26.1220000  50.4580000
  20.7310000  25.4260000  49.7770000  20.2430000  27.1200000  50.0210000
  21.0530000  26.1720000  51.7340000  21.0340000  27.2920000  52.5590000
  20.3880000  28.1220000  52.3130000  21.8420000  27.3600000  53.7070000
  21.8180000  28.2370000  54.3370000  22.6770000  26.2860000  54.0290000
  23.5190000  26.3310000  55.1260000  24.0700000  25.5540000  55.2470000
  22.6970000  25.1680000  53.2260000  23.3360000  24.3340000  53.4770000
  21.8890000  25.1130000  52.0850000  21.9140000  24.2310000  51.4630000
  18.2580000  25.1540000  49.2790000  18.9450000  25.2550000  48.2670000
  17.0360000  24.6120000  49.2920000  16.5210000  24.6130000  50.1610000
  16.4030000  24.0160000  48.1090000  16.9430000  23.0750000  47.9990000
  14.9090000  23.7830000  48.3410000  14.4320000  24.7430000  48.5410000
  14.7870000  23.1290000  49.2050000  14.2260000  23.1390000  47.1400000
  14.4300000  21.9250000  46.9030000  13.4960000  23.8600000  46.4230000
  16.6010000  24.7300000  46.7830000  16.7200000  24.0770000  45.7430000
  16.5930000  26.0590000  46.8050000  16.4440000  26.5520000  47.6740000
  16.7990000  26.7950000  45.5740000  16.2850000  26.2850000  44.7600000
  16.3950000  27.8010000  45.6850000  18.2800000  26.8830000  45.2530000
  18.8140000  26.1170000  44.4470000  18.9380000  27.8040000  45.9430000
  18.4120000  28.3510000  46.6090000  20.3610000  28.0870000  45.8140000
  20.4290000  28.8300000  45.0190000  20.8950000  28.6130000  47.1600000
  20.8420000  27.8100000  47.8950000  22.3360000  29.0480000  47.0290000
  22.9420000  28.2030000  46.7010000  22.4080000  29.8520000  46.2970000
  22.6980000  29.4020000  47.9940000  20.0370000  29.7930000  47.6270000
  20.0680000  30.5620000  46.8550000  19.0130000  29.4410000  47.7490000
  20.4810000  30.4190000  48.9360000  20.4330000  29.6740000  49.7300000
  21.5050000  30.7790000  48.8380000  19.8240000  31.2540000  49.1810000
  21.2400000  26.9270000  45.3410000  21.0940000  25.8030000  45.8080000
  22.0950000  27.1740000  44.3320000  22.0780000  28.3710000  43.4680000
  21.1270000  28.4630000  42.9440000  22.2630000  29.2760000  44.0470000
  23.2230000  28.1010000  42.4880000  23.0500000  28.5980000  41.5340000
  24.1790000  28.4260000  42.8990000  23.1770000  26.6160000  42.3390000
  24.1020000  26.2310000  41.9090000  22.3330000  26.3050000  41.7230000
  23.0060000  26.1630000  43.7840000  22.6470000  25.1370000  43.8600000
  24.3270000  26.2160000  44.5460000  24.7750000  27.2860000  44.9670000
  24.9550000  25.0570000  44.6860000  24.5420000  24.2360000  44.2660000
  26.2110000  24.9030000  45.4140000  25.9130000  24.9210000  46.4620000
  26.8630000  23.5930000  45.0220000  26.1620000  22.7750000  45.1870000
  27.1410000  23.6270000  43.9690000  27.7550000  23.4350000  45.6280000
  27.2240000  26.0410000  45.3160000  27.9460000  26.3230000  46.2750000
  27.2660000  26.6970000  44.1630000  26.6260000  26.4350000  43.4270000
  28.2110000  27.7880000  43.9260000  29.1880000  27.3880000  44.1990000
  28.1760000  28.2100000  42.4550000  28.9540000  28.9530000  42.2790000
  27.2020000  28.6450000  42.2320000  28.3930000  27.1020000  41.6030000
  27.6930000  26.4660000  41.7700000  27.9750000  29.0170000  44.7920000
  28.9260000  29.7160000  45.1590000  26.7100000  29.2740000  45.1150000
  25.9860000  28.6420000  44.8030000  26.3390000  30.4430000  45.9070000
  27.0860000  31.1940000  45.6490000  24.9300000  30.9090000  45.5380000
  24.2280000  30.1170000  45.7980000  24.7020000  31.8020000  46.1200000
  24.7520000  31.2390000  44.0690000  24.7790000  30.3110000  43.4970000
  25.5730000  31.8840000  43.7550000  23.4430000  31.9460000  43.7830000
  22.4090000  31.5870000  44.3900000  23.4490000  32.8700000  42.9430000
  26.4370000  30.2750000  47.4150000  26.6990000  31.2540000  48.1230000
  26.2710000  29.0350000  47.8830000  26.1140000  28.2920000  47.2170000
  26.3040000  28.6890000  49.3130000  25.3380000  29.0410000  49.6750000
  26.4500000  27.1710000  49.5290000  27.3950000  26.8500000  49.0910000
  26.4750000  26.8410000  51.0020000  27.3040000  27.3650000  51.4780000
  25.5370000  27.1540000  51.4600000  26.6020000  25.7660000  51.1310000
  25.3080000  26.4250000  48.8340000  25.4210000  26.5610000  47.7580000
  25.3980000  25.3670000  49.0780000  23.9090000  26.8810000  49.2220000
  23.7600000  26.7280000  50.2910000  23.7940000  27.9390000  48.9870000
  23.1710000  26.3030000  48.6660000  27.3600000  29.4040000  50.1390000
  27.0670000  29.9100000  51.2190000  28.5800000  29.4690000  49.6290000
  28.7680000  29.0510000  48.7290000  29.6530000  30.1360000  50.3520000
  29.8010000  29.6070000  51.2940000  30.9530000  30.0920000  49.5380000
  30.7820000  30.5670000  48.5720000  31.2410000  29.0520000  49.3860000
  32.0080000  30.7710000  50.2070000  31.7340000  31.6830000  50.3300000
  29.2880000  31.5840000  50.6620000  29.4850000  32.0470000  51.7790000
  28.7260000  32.2760000  49.6750000  28.5470000  31.8130000  48.7950000
  28.3590000  33.6810000  49.8190000  29.2090000  34.1420000  50.3210000
  28.1370000  34.3190000  48.4440000  27.7400000  35.3260000  48.5760000
  27.4230000  33.7180000  47.8810000  29.3570000  34.3890000  47.7240000
  29.6820000  33.4920000  47.6160000  27.1680000  33.9570000  50.7320000
  27.1990000  34.8980000  51.5370000  26.1120000  33.1660000  50.5990000
  26.1090000  32.4270000  49.9110000  24.9660000  33.3760000  51.4520000
  24.5880000  34.3880000  51.3040000  23.7970000  32.4320000  51.1100000
  22.8960000  32.8070000  51.5950000  23.5450000  32.4150000  49.6070000
  23.3240000  33.4260000  49.2640000  24.4320000  32.0430000  49.0940000
  22.6990000  31.7640000  49.3880000  24.0580000  31.0330000  51.6460000
  24.7570000  30.5290000  50.9790000  24.5000000  31.1170000  52.6390000
  22.8080000  30.2070000  51.7450000  22.1060000  30.6910000  52.4240000
  22.3550000  30.1140000  50.7580000  23.0560000  29.2160000  52.1250000
  25.4250000  33.1640000  52.8960000  25.0070000  33.8890000  53.7960000
  26.3510000  32.2250000  53.0980000  26.6990000  31.6950000  52.3120000
  26.8690000  31.9510000  54.4300000  26.0110000  31.8860000  55.0990000
  27.6130000  30.6170000  54.4710000  28.3470000  30.6250000  53.6650000
  28.1280000  30.5570000  55.4300000  26.7680000  29.3390000  54.3170000
  26.2350000  29.3910000  53.3670000  27.6680000  28.1170000  54.3160000
  28.3840000  28.1940000  53.4980000  28.2040000  28.0600000  55.2630000
  27.0630000  27.2200000  54.1860000  25.7530000  29.2330000  55.4280000
  26.2680000  29.1800000  56.3870000  25.1040000  30.1090000  55.4120000
  25.1530000  28.3340000  55.2880000  27.7590000  33.0710000  54.9280000
  27.7960000  33.3510000  56.1150000  28.4630000  33.7300000  54.0160000
  28.3870000  33.4620000  53.0450000  29.3470000  34.8360000  54.3840000
  29.9730000  34.5280000  55.2210000  30.2810000  35.1950000  53.2170000
  29.6700000  35.3850000  52.3350000  30.8280000  36.1000000  53.4820000
  31.2980000  34.1000000  52.8730000  30.7530000  33.1890000  52.6270000
  31.9240000  33.9240000  53.7480000  32.2060000  34.4540000  51.6920000
  33.2760000  35.0680000  51.9190000  31.8590000  34.0970000  50.5400000
  28.5150000  36.0420000  54.8240000  28.9250000  36.7960000  55.7100000
  27.3280000  36.1880000  54.2310000  27.0540000  35.5190000  53.5250000
  26.4030000  37.2810000  54.5620000  27.0100000  38.1840000  54.6300000
  25.3320000  37.4510000  53.4770000  24.8900000  36.4720000  53.2930000
  24.5700000  38.1250000  53.8680000  25.7960000  38.0080000  52.1340000
  26.0900000  39.0510000  52.2540000  26.6470000  37.4300000  51.7740000
  24.6460000  37.9120000  51.1210000  23.7920000  38.4630000  51.5150000
  24.3780000  36.8620000  51.0020000  24.9950000  38.4810000  49.7450000
  24.2780000  38.0970000  49.0190000  25.9980000  38.1490000  49.4760000
  24.9610000  39.9710000  49.7040000  24.0360000  40.2940000  49.9510000
  25.6330000  40.3410000  50.3600000  25.1900000  40.2870000  48.7730000
  25.6940000  37.0400000  55.9010000  24.8660000  37.8440000  56.3150000
  25.9780000  35.9050000  56.5400000  26.6210000  35.2470000  56.1230000
  25.3770000  35.6000000  57.8270000  26.0880000  35.0040000  58.4000000
  25.1910000  36.5410000  58.3450000  24.0700000  34.8350000  57.7560000
  23.4530000  34.5530000  58.7810000  23.6240000  34.5160000  56.5490000
  24.1470000  34.7960000  55.7310000  22.3860000  33.7650000  56.3930000
  21.6000000  34.2200000  56.9950000  21.9670000  33.7940000  54.9290000
  21.9470000  34.8360000  54.6100000  22.7210000  33.2530000  54.3570000
  20.5990000  33.1780000  54.5970000  19.8640000  33.5360000  55.3180000
  20.6730000  32.0920000  54.6620000  20.1450000  33.5600000  53.1980000
  20.7480000  34.4930000  52.6170000  19.1970000  32.9340000  52.6740000
  22.5780000  32.3170000  56.8830000  23.7060000  31.7840000  56.8600000
  21.4890000  31.7010000  57.3510000  20.6110000  32.2000000  57.3610000
  21.5270000  30.3350000  57.8460000  22.3590000  29.8280000  57.3580000
  21.7510000  30.3100000  59.3550000  21.0130000  30.9630000  59.8210000
  21.6050000  29.2880000  59.7050000  23.1350000  30.7690000  59.7890000
  23.1720000  30.7850000  60.8780000  23.3050000  31.7750000  59.4050000
  24.2510000  29.8510000  59.2730000  24.2940000  29.9150000  58.1860000
  24.0360000  28.8240000  59.5680000  25.5450000  30.2520000  59.8320000
  25.8880000  29.7430000  60.6340000  26.3010000  31.2410000  59.3560000
  25.9290000  31.9470000  58.2890000  25.1000000  31.6860000  57.7740000
  26.4760000  32.7440000  57.9950000  27.3840000  31.5970000  60.0140000
  27.6340000  31.1220000  60.8700000  27.9650000  32.3450000  59.6630000
  20.2510000  29.6150000  57.5140000  19.3610000  30.1940000  56.9370000
  20.1680000  28.3330000  57.8510000  20.9440000  27.8860000  58.3180000
  18.9660000  27.5690000  57.5510000  18.6990000  27.6780000  56.5000000
  19.1890000  26.0650000  57.7730000  19.6730000  25.9300000  58.7400000
  18.2160000  25.5730000  57.7820000  20.0620000  25.3900000  56.6970000
  21.0210000  25.9080000  56.6680000  20.3460000  23.9240000  57.0200000
  20.8470000  23.8550000  57.9860000  19.4070000  23.3720000  57.0580000
  20.9870000  23.4990000  56.2470000  19.3600000  25.4910000  55.3550000
  18.4050000  24.9680000  55.4040000  19.1880000  26.5400000  55.1130000
  19.9830000  25.0380000  54.5840000  17.8530000  28.1110000  58.4210000
  18.1080000  28.6110000  59.5140000  16.6130000  28.0870000  57.9170000
  16.2100000  27.6360000  56.5690000  16.5170000  28.3510000  55.8060000
  16.6300000  26.6570000  56.3390000  14.7020000  27.5720000  56.6830000
  14.2260000  27.6830000  55.7090000  14.3780000  26.6380000  57.1420000
  14.4080000  28.7480000  57.5720000  13.4000000  28.6920000  57.9820000
  14.5300000  29.6890000  57.0360000  15.4610000  28.5930000  58.6670000
  15.6980000  29.5140000  59.2010000  14.9830000  27.6890000  59.8160000
  15.2810000  26.5040000  59.8510000  14.2410000  28.2790000  60.7520000
  14.0460000  29.2650000  60.6550000  13.6960000  27.5800000  61.9070000
  14.4620000  26.9660000  62.3810000  13.2110000  28.6110000  62.9550000
  14.0680000  29.2190000  63.2460000  12.4620000  29.2440000  62.4780000
  12.5870000  28.0290000  64.2410000  13.2200000  27.2110000  64.5850000
  11.5980000  27.6440000  63.9940000  12.4320000  29.0500000  65.4140000
  12.8020000  30.2350000  65.3230000  11.8890000  28.5640000  66.5240000
  11.7650000  29.1610000  67.3290000  11.6000000  27.5970000  66.5630000
  12.5660000  26.6570000  61.4440000  11.5870000  27.1010000  60.8740000
  12.7460000  25.3390000  61.5820000  13.9350000  24.6370000  62.0970000
  14.8550000  25.1170000  61.7630000  13.9260000  24.5880000  63.1860000
  13.7770000  23.2640000  61.4830000  14.1090000  23.2570000  60.4450000
  14.3330000  22.5150000  62.0470000  12.3160000  23.0300000  61.5790000
  12.0280000  22.7700000  62.5980000  12.0020000  22.2380000  60.8990000
  11.7150000  24.3830000  61.1650000  11.4550000  24.4260000  60.1070000
  10.4600000  24.6630000  61.9710000  10.5440000  24.9060000  63.1770000
   9.2890000  24.6790000  61.3170000   9.1080000  24.7550000  59.8660000
   9.1010000  25.7870000  59.5160000   9.8790000  24.1970000  59.3360000
   7.7620000  24.1130000  59.7180000   7.2900000  24.4200000  58.7840000
   7.8500000  23.0270000  59.7410000   6.9730000  24.6050000  60.8960000
   6.2910000  23.8310000  61.2470000   6.4050000  25.4960000  60.6280000
   8.0100000  24.9360000  61.9780000   7.9900000  25.9660000  62.3340000
   7.7350000  24.1910000  63.2690000   7.1310000  24.7570000  64.1720000
   8.2080000  22.9550000  63.3900000   8.7390000  22.5450000  62.6350000
   7.9630000  22.1830000  64.6140000   6.9640000  22.4850000  64.9280000
   8.0210000  20.6610000  64.3480000   7.6100000  20.1510000  65.2190000
   7.1830000  20.2880000  63.1250000   6.1500000  20.5980000  63.2840000
   7.5820000  20.7910000  62.2440000   7.2190000  19.2090000  62.9750000
   9.4630000  20.2150000  64.1400000   9.8010000  20.5740000  63.1680000
  10.0790000  20.6550000  64.9240000   9.6290000  18.7070000  64.1830000
   9.3120000  18.3340000  65.1570000   9.0180000  18.2520000  63.4040000
  10.6760000  18.4520000  64.0190000   8.9420000  22.4920000  65.7440000
   8.7960000  21.9820000  66.8770000   9.8890000  23.3820000  65.4540000
   9.8750000  23.8360000  64.5520000  10.9460000  23.7210000  66.4010000
  10.9160000  22.8250000  67.0210000  12.2530000  23.9900000  65.6570000
  12.9200000  24.5310000  66.3290000  12.0270000  24.6120000  64.7910000
  13.1080000  22.5300000  65.0840000  14.2380000  22.8890000  64.4680000
  10.7840000  24.8360000  67.3920000  10.6460000  25.9960000  67.0110000
  10.9000000  24.4960000  68.6710000  11.0300000  23.5280000  68.9280000
  10.8400000  25.5160000  69.6950000   9.9440000  26.1260000  69.5760000
  10.7830000  24.9400000  71.1180000  10.8700000  25.7650000  71.8250000
   9.4620000  24.2410000  71.3770000   8.6440000  24.9470000  71.2350000
   9.3490000  23.4090000  70.6820000   9.4440000  23.8650000  72.4000000
  11.8640000  24.0270000  71.3100000  11.7590000  23.3150000  70.6750000
  12.1540000  26.2530000  69.5400000  13.1080000  25.7200000  68.9790000
  12.2070000  27.4790000  70.0390000  11.3910000  27.8690000  70.4890000
  13.4210000  28.2710000  69.9480000  13.6620000  28.3810000  68.8910000
  13.2150000  29.6980000  70.5460000  12.3580000  30.1800000  70.0760000
  12.8780000  29.6210000  72.0480000  11.9690000  29.0360000  72.1870000
  13.7010000  29.1450000  72.5810000  12.7260000  30.6270000  72.4380000
  14.4480000  30.5590000  70.2410000  15.3310000  29.9980000  70.5460000
  14.4790000  30.7290000  69.1650000  14.4960000  31.8950000  70.9190000
  13.6390000  32.4920000  70.6060000  14.4660000  31.7550000  72.0000000
  15.4170000  32.4090000  70.6440000  14.5960000  27.5590000  70.6420000
  15.7290000  27.7390000  70.2460000  14.3010000  26.7530000  71.6630000
  13.3300000  26.6550000  71.9220000  15.2890000  26.0060000  72.4270000
  15.9620000  26.7170000  72.9060000  14.5790000  25.1420000  73.4730000
  15.3190000  24.5070000  73.9600000  13.8420000  24.5190000  72.9670000
  13.8740000  25.9590000  74.5320000  12.7170000  26.3810000  74.3070000
  14.4640000  26.1490000  75.6110000  16.0870000  25.0730000  71.5030000
  17.3170000  25.0110000  71.5650000  15.3680000  24.3070000  70.6860000
  14.3610000  24.3760000  70.7100000  15.9870000  23.3740000  69.7600000
  16.7070000  22.7880000  70.3310000  14.9350000  22.4150000  69.1390000
  14.0940000  23.0160000  68.7940000  15.5310000  21.6520000  67.9470000
  15.8730000  22.3630000  67.1950000  16.3730000  21.0490000  68.2860000
  14.7700000  21.0030000  67.5140000  14.4580000  21.4150000  70.1800000
  15.3020000  20.8160000  70.5220000  14.0250000  21.9490000  71.0260000
  13.7050000  20.7620000  69.7390000  16.7180000  24.1120000  68.6410000
  17.8380000  23.7620000  68.2970000  16.0740000  25.1240000  68.0670000
  15.1520000  25.3730000  68.3970000  16.6650000  25.8790000  66.9780000
  16.9490000  25.1560000  66.2130000  15.6530000  26.8610000  66.4030000
  14.7700000  26.3050000  66.0900000  15.3770000  27.5710000  67.1830000
  16.1800000  27.6290000  65.2200000  16.7120000  26.9750000  64.1150000
  16.7710000  25.8970000  64.1130000  17.1730000  27.6930000  63.0050000
  17.5840000  27.1740000  62.1520000  17.0970000  29.0740000  63.0130000
  17.5880000  29.8120000  61.9700000  17.9420000  29.2980000  61.2410000
  16.5720000  29.7350000  64.0960000  16.5100000  30.8130000  64.0960000
  16.1210000  29.0100000  65.1930000  15.7150000  29.5380000  66.0440000
  17.9350000  26.6130000  67.3870000  18.8280000  26.8380000  66.5710000
  18.0200000  26.9660000  68.6580000  17.2530000  26.7530000  69.2800000
  19.1870000  27.6520000  69.1840000  19.4210000  28.5210000  68.5680000
  18.8990000  28.1030000  70.6090000  18.9110000  27.2240000  71.2530000
  17.9070000  28.5540000  70.6290000  19.8750000  29.0970000  71.1570000
  20.7980000  29.0710000  70.5790000  20.0930000  28.8690000  72.2000000
  19.1310000  30.6870000  71.0310000  20.3520000  31.4700000  70.0800000
  21.2990000  31.4540000  70.6200000  20.4650000  30.9460000  69.1310000
  20.0590000  32.5030000  69.8920000  20.3820000  26.6780000  69.1820000
  21.5440000  27.1060000  69.1610000  20.0880000  25.3790000  69.2820000
  19.1230000  25.0950000  69.3730000  21.1380000  24.3600000  69.2620000
  21.8890000  24.6440000  69.9990000  20.6210000  22.9420000  69.6520000
  19.8850000  22.6410000  68.9060000  21.7750000  21.9690000  69.6810000
  22.2540000  21.9440000  68.7020000  22.4990000  22.2860000  70.4320000
  21.4050000  20.9740000  69.9300000  19.9540000  22.9490000  71.0300000
  19.1800000  23.7160000  71.0320000  19.4980000  21.9730000  71.1950000
  20.8900000  23.2250000  72.1560000  21.6600000  22.4540000  72.1860000
  21.3570000  24.1990000  72.0100000  20.3380000  23.2240000  73.0960000
  21.7120000  24.2950000  67.8380000  22.9260000  24.3390000  67.6600000
  20.8290000  24.2370000  66.8400000  19.8440000  24.2280000  67.0640000
  21.2280000  24.1860000  65.4390000  21.8760000  23.3200000  65.3050000
  20.0030000  24.0290000  64.5360000  20.3420000  23.9780000  63.5010000
  19.3650000  24.9030000  64.6670000  19.1750000  22.7780000  64.8340000
  18.9900000  22.7390000  65.9080000  19.7550000  21.9060000  64.5330000
  17.5810000  22.7180000  63.9830000  17.9940000  23.5420000  62.6170000
  18.3270000  24.5450000  62.8840000  18.8000000  23.0160000  62.1050000
  17.1280000  23.6100000  61.9580000  22.0030000  25.4340000  65.0530000
  23.0260000  25.3550000  64.3880000  21.5330000  26.5870000  65.4980000
  20.6880000  26.5930000  66.0520000  22.2030000  27.8510000  65.2100000
  22.3320000  27.9200000  64.1300000  21.3190000  29.0450000  65.6840000
  21.0460000  28.8820000  66.7270000  22.0730000  30.3820000  65.6270000
  22.9620000  30.3250000  66.2550000  22.3680000  30.5890000  64.5980000
  21.4240000  31.1810000  65.9870000  20.0850000  29.1020000  64.8210000
  20.3750000  29.2650000  63.7830000  19.5410000  28.1610000  64.9030000
  19.4470000  29.9210000  65.1530000  23.6160000  27.9180000  65.8110000
  24.5390000  28.4540000  65.1890000  23.7930000  27.3490000  67.0000000
  23.0120000  26.9010000  67.4580000  25.1060000  27.3620000  67.6570000
  25.4390000  28.4000000  67.6410000  25.0040000  26.8710000  69.0930000
  24.4340000  25.9420000  69.0900000  26.0140000  26.6760000  69.4530000
  24.3430000  27.8160000  70.0590000  24.9230000  28.7360000  70.1240000
  23.3350000  28.0460000  69.7130000  24.2730000  27.1570000  71.4370000
  25.2820000  26.8910000  71.7520000  23.6650000  26.2550000  71.3650000
  23.6580000  28.0840000  72.4840000  22.6650000  28.3900000  72.1560000
  24.2890000  28.9650000  72.6010000  23.5500000  27.3860000  73.7800000
  22.9650000  26.5690000  73.6750000  24.4700000  27.1040000  74.0880000
  23.1410000  28.0070000  74.4640000  26.1400000  26.5120000  66.9180000
  27.3270000  26.8020000  66.9660000  25.6910000  25.4510000  66.2530000
  24.7030000  25.2420000  66.2660000  26.5920000  24.5820000  65.5050000
  27.4360000  24.3270000  66.1460000  25.8710000  23.2860000  65.0820000
  26.5670000  22.7120000  64.4710000  25.0110000  23.5750000  64.4780000
  25.2670000  22.1860000  66.3890000  24.3670000  22.8330000  67.1350000
  27.0870000  25.3120000  64.2460000  28.0350000  24.8600000  63.5920000
  26.4340000  26.4340000  63.9240000  25.6910000  26.7450000  64.5340000
  26.7340000  27.2330000  62.7440000  27.4740000  26.6430000  62.2030000
  25.4620000  27.4390000  61.9320000  24.7620000  28.0220000  62.5300000
  25.7160000  27.9920000  61.0280000  24.7910000  26.1570000  61.5310000
  25.3890000  24.9430000  61.3450000  26.4500000  24.7600000  61.4260000
  24.4500000  23.9880000  61.0410000  24.6410000  23.0120000  60.8630000
  23.2120000  24.5730000  61.0190000  21.9500000  24.0070000  60.7610000
  21.8450000  22.9570000  60.5330000  20.8500000  24.8420000  60.8100000
  19.8680000  24.4360000  60.6170000  20.9850000  26.2140000  61.1070000
  20.1070000  26.8420000  61.1400000  22.2610000  26.7800000  61.3630000
  22.3620000  27.8310000  61.5880000  23.3880000  25.9470000  61.3180000
  27.4430000  28.5710000  62.9660000  27.4300000  29.4400000  62.0870000
  28.0570000  28.7340000  64.1340000  27.9920000  28.0010000  64.8260000
  28.8240000  29.9400000  64.4520000  28.2070000  30.8260000  64.3010000
  29.3090000  29.8910000  65.9010000  29.8020000  30.8380000  66.1220000
  30.0300000  29.0780000  65.9860000  28.2270000  29.6700000  66.9470000
  28.6980000  29.2950000  67.8550000  27.5280000  28.9250000  66.5660000
  27.3020000  31.1580000  67.3600000  28.2540000  31.7390000  68.6350000
  28.2840000  30.9970000  69.4330000  29.2660000  31.9280000  68.2760000
  27.8240000  32.6650000  69.0160000  30.0670000  29.9170000  63.5610000
  30.5050000  28.8460000  63.1600000  30.6350000  31.0840000  63.2590000
  30.2200000  31.9340000  63.6140000  31.8400000  31.1790000  62.4300000
  31.6690000  30.6210000  61.5090000  32.1540000  32.6690000  62.0190000
  31.7130000  33.3030000  62.7880000  33.6650000  32.9190000  61.9380000
  34.1240000  32.6880000  62.9000000  34.0980000  32.2820000  61.1670000
  33.8480000  33.9650000  61.6900000  31.5520000  33.0010000  60.6470000
  31.8820000  34.0010000  60.3650000  31.9310000  32.2760000  59.9260000
  30.0500000  32.9720000  60.5940000  29.6970000  31.9720000  60.8460000
  29.6470000  33.6900000  61.3080000  29.7170000  33.2330000  59.5890000
  33.0220000  30.5780000  63.1930000  33.7400000  29.7290000  62.6630000
  33.2150000  31.0120000  64.4350000  32.5920000  31.7120000  64.8110000
  34.3030000  30.5060000  65.2740000  35.2440000  30.5260000  64.7250000
  34.4620000  31.3950000  66.5160000  33.5590000  31.3130000  67.1210000
  34.5890000  32.4280000  66.1910000  35.6510000  31.0070000  67.3670000
  36.7940000  31.0510000  66.8590000  35.4470000  30.6710000  68.5540000
  33.9790000  29.0560000  65.6740000  33.0710000  28.8090000  66.4710000
  34.7240000  28.1050000  65.1110000  35.4710000  28.3770000  64.4880000
  34.4990000  26.6830000  65.3630000  33.4880000  26.4940000  65.0020000
  35.5050000  25.8280000  64.5780000  35.4490000  26.0810000  63.5190000
  36.5120000  26.0240000  64.9450000  35.2680000  24.7730000  64.7120000
  34.4570000  26.2700000  66.8360000  33.6240000  25.4390000  67.2060000
  35.3260000  26.8510000  67.6680000  35.9850000  27.5220000  67.3000000
  35.3500000  26.5400000  69.1090000  35.3770000  25.4520000  69.1640000
  36.5850000  27.1300000  69.7950000  36.5240000  26.9180000  70.8620000
  36.5870000  28.2090000  69.6380000  37.8950000  26.5590000  69.2610000
  38.0040000  25.3200000  69.0880000  38.8210000  27.3670000  69.0250000
  34.1080000  27.0380000  69.8460000  33.8150000  26.5970000  70.9510000
  33.4130000  28.0010000  69.2590000  33.7260000  28.3770000  68.3750000
  32.2090000  28.5200000  69.8720000  32.4070000  28.6960000  70.9290000
  31.8060000  29.8450000  69.2270000  30.7700000  30.0700000  69.4820000
  31.9050000  29.7640000  68.1450000  32.6430000  30.8900000  69.6980000
  33.5460000  30.6690000  69.4590000  31.0790000  27.5090000  69.7390000
  30.1600000  27.4890000  70.5620000  31.1500000  26.6670000  68.7090000
  31.9280000  26.7220000  68.0670000  30.1140000  25.6700000  68.5050000
  29.1470000  26.1720000  68.4840000  30.3140000  24.9440000  67.1890000
  31.2140000  24.3330000  67.2600000  29.4520000  24.3020000  67.0090000
  30.4600000  25.8690000  66.0500000  31.2510000  26.5850000  66.2740000
  29.5200000  26.4010000  65.9030000  30.8070000  25.1390000  64.7940000
  29.9450000  24.5680000  64.4500000  31.6410000  24.4620000  64.9800000
  31.1850000  26.1180000  63.7800000  30.7590000  27.0320000  63.8340000
  32.0430000  25.9010000  62.7940000  32.6500000  24.7280000  62.6640000
  32.5050000  24.0050000  63.3550000  33.2560000  24.5580000  61.8740000
  32.2290000  26.8450000  61.8960000  31.7220000  27.7160000  61.9660000
  32.8790000  26.6990000  61.1370000  30.1650000  24.6650000  69.6350000
  31.1700000  24.5750000  70.3360000  29.0390000  23.9950000  69.9090000
  27.6690000  24.2660000  69.4250000  27.2580000  25.1610000  69.8920000
  27.6510000  24.3810000  68.3410000  26.9180000  23.0430000  69.8490000
  25.8650000  23.2760000  70.0090000  27.0060000  22.2590000  69.0970000
  27.5620000  22.6200000  71.1260000  27.4590000  21.5440000  71.2670000
  27.1120000  23.1410000  71.9710000  29.0430000  23.0040000  70.9850000
  29.4730000  23.3870000  71.9110000  29.8880000  21.7870000  70.6070000
  30.3040000  21.6060000  69.4490000  30.1440000  20.9660000  71.6090000
  29.7940000  21.1970000  72.5280000  30.9030000  19.7540000  71.4400000
  31.4860000  19.7680000  70.5190000  31.8930000  19.5840000  72.6000000
  31.3370000  19.6130000  73.5370000  32.3830000  18.6160000  72.4980000
  32.9700000  20.6750000  72.6370000  33.4870000  20.6960000  71.6780000
  32.4930000  21.6390000  72.8140000  33.9920000  20.4140000  73.7480000
  34.5380000  19.5010000  73.5100000  33.4570000  20.2820000  74.6880000
  35.0010000  21.5590000  73.9150000  35.4300000  21.7920000  72.9400000
  35.7910000  21.2330000  74.5910000  34.3740000  22.7950000  74.4710000
  33.6390000  23.1070000  73.8520000  33.9850000  22.5950000  75.3820000
  35.0730000  23.5190000  74.5550000  29.8930000  18.6290000  71.4340000
  28.8140000  18.7520000  72.0330000  30.2230000  17.5430000  70.7360000
  31.1020000  17.5170000  70.2400000  29.3360000  16.3990000  70.6800000
  28.4160000  16.7170000  70.1900000  29.9420000  15.2770000  69.8370000
  30.9930000  15.1710000  70.1070000  29.4130000  14.3510000  70.0630000
  29.8530000  15.5280000  68.3630000  28.6140000  15.6500000  67.7420000
  27.7120000  15.5220000  68.3220000  28.5230000  15.9360000  66.3800000
  27.5550000  16.0280000  65.9100000  29.6790000  16.1030000  65.6280000
  29.6100000  16.3290000  64.5740000  30.9280000  15.9790000  66.2330000
  31.8290000  16.1050000  65.6510000  31.0070000  15.6900000  67.6000000
  31.9750000  15.5910000  68.0690000  28.9410000  15.9140000  72.0850000
  27.7630000  15.6090000  72.3270000  29.8840000  15.9200000  73.0310000
  30.8230000  16.2230000  72.8170000  29.5340000  15.4810000  74.3790000
  29.1260000  14.4740000  74.2970000  30.7660000  15.3810000  75.2960000
  30.4300000  15.0400000  76.2750000  31.4450000  14.6440000  74.8680000
  31.5430000  16.6830000  75.4900000  30.8360000  17.4820000  75.7140000
  32.0720000  16.9150000  74.5660000  32.5520000  16.5940000  76.6200000
  32.9660000  17.5870000  76.7940000  33.3500000  15.9150000  76.3200000
  31.9680000  16.1030000  77.8800000  32.0780000  15.1200000  78.0860000
  31.3060000  16.8420000  78.7750000  31.0980000  18.1420000  78.5860000
  31.4490000  18.5940000  77.7540000  30.5890000  18.6770000  79.2750000
  30.8360000  16.2690000  79.8750000  30.9800000  15.2810000  80.0310000
  30.3340000  16.8200000  80.5570000  28.4430000  16.3890000  74.9880000
  27.5900000  15.9220000  75.7530000  28.4300000  17.6680000  74.6060000
  29.1290000  18.0040000  73.9590000  27.4090000  18.5910000  75.1170000
  27.2790000  18.3470000  76.1710000  27.8470000  20.0420000  74.9980000
  28.1680000  20.2220000  73.9720000  26.9930000  20.6790000  75.2290000
  28.9860000  20.4130000  75.9270000  29.6640000  19.5640000  76.0140000
  28.5790000  20.6550000  76.9090000  29.7560000  21.6050000  75.4060000
  29.5030000  21.9890000  74.2350000  30.5970000  22.1580000  76.1570000
  26.0820000  18.4130000  74.3960000  25.0220000  18.5330000  75.0130000
  26.1410000  18.1410000  73.0930000  27.0410000  18.0850000  72.6380000
  24.9290000  17.9230000  72.3130000  24.3240000  18.8290000  72.3550000
  25.2690000  17.6240000  70.8510000  26.2030000  17.0620000  70.8700000
  24.4670000  16.9840000  70.4830000  25.4570000  18.7160000  69.7880000
  25.3200000  18.2450000  68.8150000  24.4190000  19.8180000  69.9470000
  23.4200000  19.3880000  69.8810000  24.5450000  20.2980000  70.9170000
  24.5490000  20.5570000  69.1560000  26.8010000  19.2820000  69.8330000
  26.9620000  19.7600000  70.7990000  27.5350000  18.4880000  69.6940000
  26.9110000  20.0210000  69.0390000  24.1550000  16.7400000  72.8970000
  22.9290000  16.7560000  72.9170000  24.8810000  15.7340000  73.3920000
  25.8880000  15.8080000  73.3600000  24.2890000  14.5290000  73.9790000
  23.6410000  14.0870000  73.2230000  25.3750000  13.5210000  74.3790000
  26.0790000  14.0250000  75.0410000  24.7790000  12.3300000  75.1620000
  24.2700000  12.6990000  76.0520000  24.0670000  11.7990000  74.5300000
  25.5800000  11.6510000  75.4560000  26.1250000  13.0400000  73.1440000
  25.4510000  12.4320000  72.5410000  26.4430000  13.9090000  72.5680000
  27.3720000  12.1960000  73.4960000  28.0640000  12.7980000  74.0850000
  27.0680000  11.3220000  74.0730000  27.8630000  11.8730000  72.5780000
  23.4790000  14.8760000  75.2150000  22.3340000  14.4510000  75.3410000
  24.0930000  15.6460000  76.1220000  25.0460000  15.9250000  75.9370000
  23.4690000  16.1140000  77.3740000  23.1960000  15.2530000  77.9840000
  24.4730000  17.0040000  78.1780000  24.8330000  17.7880000  77.5120000
  23.7950000  17.6750000  79.3910000  22.9610000  18.2880000  79.0480000
  23.4260000  16.9080000  80.0720000  24.5190000  18.3040000  79.9100000
  25.6320000  16.1430000  78.6680000  25.2610000  15.4820000  79.4520000
  25.9940000  15.5460000  77.8310000  26.7890000  16.9340000  79.2220000
  27.1890000  17.5850000  78.4450000  26.4470000  17.5390000  80.0620000
  27.5680000  16.2500000  79.5600000  22.2180000  16.9350000  77.0320000
  21.1230000  16.6230000  77.4810000  22.3910000  17.9560000  76.1970000
  23.3170000  18.1390000  75.8370000  21.2910000  18.8200000  75.7830000
  20.9610000  19.3030000  76.7030000  21.7610000  19.8670000  74.7780000
  22.3540000  19.3670000  74.0120000  20.8830000  20.3220000  74.3190000
  22.6160000  20.9820000  75.4030000  22.6640000  21.8190000  74.7070000
  23.6210000  20.5970000  75.5780000  22.0400000  21.4790000  76.7320000
  20.9650000  22.1300000  76.7230000  22.6590000  21.2010000  77.7880000
  20.0890000  18.0920000  75.2320000  18.9820000  18.2100000  75.7710000
  20.3000000  17.3160000  74.1780000  21.2260000  17.2410000  73.7820000
  19.2020000  16.5770000  73.5960000  18.3740000  17.2670000  73.4320000
  19.5900000  16.0130000  72.2360000  20.5900000  15.5850000  72.3130000
  18.8790000  15.2300000  71.9720000  19.5950000  17.0420000  71.1370000
  18.4110000  17.4530000  70.5360000  17.4730000  17.0340000  70.8680000
  18.4160000  18.3950000  69.5150000  17.4850000  18.7010000  69.0610000
  19.5970000  18.9380000  69.0810000  19.6050000  19.6690000  68.2860000
  20.7810000  18.5350000  69.6770000  21.7190000  18.9560000  69.3470000
  20.7670000  17.5890000  70.7000000  21.6980000  17.2840000  71.1540000
  18.6860000  15.5000000  74.5510000  17.4970000  15.1430000  74.5210000
  19.5320000  15.0230000  75.4580000  20.4880000  15.3450000  75.5030000
  19.0280000  14.0160000  76.3870000  18.5460000  13.2430000  75.7890000
  20.1510000  13.3610000  77.1750000  20.1750000  13.7750000  78.1830000
  21.1020000  13.5560000  76.6790000  19.9380000  11.9730000  77.2460000
  20.6620000  11.5940000  77.7490000  17.9890000  14.6180000  77.3400000
  16.9750000  13.9870000  77.6140000  18.2470000  15.8280000  77.8480000
  19.1120000  16.2870000  77.6010000  17.3100000  16.5130000  78.7560000
  17.1880000  15.8920000  79.6440000  17.8360000  17.8850000  79.1910000
  18.0140000  18.4700000  78.2880000  17.0570000  18.3620000  79.7850000
  19.1220000  17.9080000  80.0150000  18.9930000  17.3050000  80.9140000
  19.9440000  17.5060000  79.4230000  19.4280000  19.3560000  80.4060000
  18.6100000  19.7230000  81.0260000  19.4890000  19.9510000  79.4950000
  20.7180000  19.5290000  81.1720000  21.4620000  18.8350000  80.7810000
  20.5400000  19.3150000  82.2260000  21.2340000  20.9340000  81.0350000
  21.4010000  21.1380000  80.0600000  20.5510000  21.5810000  81.4020000
  22.0970000  21.0270000  81.5510000  15.9850000  16.7200000  78.0270000
  14.9450000  16.3890000  78.5540000  16.0400000  17.2450000  76.8030000
  16.9410000  17.4990000  76.4230000  14.8500000  17.4670000  75.9920000
  14.2060000  18.1390000  76.5590000  15.2130000  18.0950000  74.6370000
  14.3030000  18.1640000  74.0400000  15.9260000  17.4380000  74.1380000
  15.8300000  19.4850000  74.7230000  16.7390000  19.4230000  75.3210000
  15.1180000  20.1500000  75.2120000  16.2410000  20.1670000  73.1470000
  16.4700000  21.6580000  73.6180000  15.5520000  22.0440000  74.0620000
  17.2710000  21.6870000  74.3560000  16.7440000  22.2720000  72.7600000
  14.1330000  16.1630000  75.7120000  12.9280000  16.1360000  75.5400000
  14.8740000  15.0740000  75.6130000  15.8750000  15.1200000  75.7410000
  14.2240000  13.8070000  75.3170000  13.5680000  13.9820000  74.4640000
  15.2460000  12.7540000  74.9420000  15.8320000  13.1030000  74.0920000
  15.9070000  12.5710000  75.7890000  14.7340000  11.8300000  74.6750000
  13.3400000  13.3180000  76.4590000  12.4320000  12.5280000  76.2320000
  13.5890000  13.8080000  77.6710000  14.3370000  14.4760000  77.7880000
  12.8060000  13.4030000  78.8370000  12.6670000  12.3240000  78.7720000
  13.5470000  13.7320000  80.1360000  13.6660000  14.8140000  80.1940000
  12.9370000  13.3880000  80.9710000  14.9150000  13.1000000  80.2600000
  15.5000000  13.3390000  79.3720000  14.8020000  12.0190000  80.3410000
  15.6430000  13.6160000  81.4870000  15.4780000  14.6900000  81.5710000
  16.7090000  13.4200000  81.3750000  15.1670000  12.9670000  82.7020000
  14.3850000  13.3850000  83.1860000  15.6960000  11.8600000  83.2140000
  16.7280000  11.2730000  82.6150000  17.1060000  11.6620000  81.7630000
  17.1340000  10.4380000  83.0120000  15.2020000  11.3450000  84.3340000
  14.4250000  11.7940000  84.7970000  15.6040000  10.5040000  84.7230000
  11.4310000  14.0680000  78.8450000  10.5150000  13.6110000  79.5340000
  11.2860000  15.1260000  78.0500000  12.0720000  15.4340000  77.4950000
  10.0250000  15.8530000  77.9580000   9.1910000  15.1790000  78.1550000
  10.0050000  16.9770000  78.9960000  10.7110000  17.7480000  78.6870000
  10.3120000  16.5670000  79.9580000   8.6390000  17.6080000  79.1540000
   7.6240000  16.9690000  78.7910000   8.5880000  18.7520000  79.6530000
   9.8880000  16.4290000  76.5580000   9.8250000  17.6460000  76.3870000
   9.7390000  15.5450000  75.5490000   9.3870000  14.1510000  75.8950000
  10.1120000  13.7290000  76.5900000   8.3900000  14.0990000  76.3330000
   9.4290000  13.4370000  74.5830000  10.4380000  13.0840000  74.3680000
   8.7410000  12.5920000  74.5820000   9.0070000  14.4600000  73.5890000
   7.9200000  14.5220000  73.5400000   9.4020000  14.2210000  72.6020000
   9.5990000  15.7780000  74.1010000  10.5720000  16.0670000  73.7050000
   8.7140000  16.9300000  73.6560000   9.1360000  17.7980000  72.9020000
   7.4620000  16.8970000  74.0960000   7.1850000  16.1530000  74.7200000
   6.4740000  17.8950000  73.7120000   6.5370000  17.9690000  72.6260000
   5.0990000  17.4190000  74.1390000   4.9930000  17.5530000  75.2160000
   4.3410000  18.0090000  73.6230000   4.9020000  15.9450000  73.7980000
   5.2740000  15.3480000  74.6300000   5.4800000  15.7200000  72.9020000
   3.4650000  15.5620000  73.5440000   2.5330000  16.4340000  73.9260000
   3.1920000  14.4870000  73.0060000   2.2280000  14.2370000  72.8380000
   3.9320000  13.8570000  72.7330000   6.7490000  19.3360000  74.1360000
   6.1920000  20.2660000  73.5570000   7.6410000  19.5290000  75.1010000
   8.0730000  18.7330000  75.5480000   8.0050000  20.8780000  75.5240000
   7.0990000  21.4830000  75.5620000   8.6550000  20.8520000  76.9110000
   7.9010000  20.5380000  77.6320000   9.4650000  20.1230000  76.8920000
   9.2310000  22.1880000  77.3780000   8.4380000  22.9350000  77.3820000
  10.0170000  22.4970000  76.6890000   9.8160000  22.0760000  78.7820000
  10.6050000  21.3240000  78.7730000   9.0260000  21.7660000  79.4660000
  10.3780000  23.3400000  79.2570000  10.3900000  24.1200000  78.6150000
  10.8750000  23.5330000  80.4780000  10.8700000  22.5530000  81.3710000
  10.4270000  21.6720000  81.1520000  11.3090000  22.6870000  82.2710000
  11.4590000  24.6810000  80.7800000  11.5280000  25.4110000  80.0850000
  11.8360000  24.8280000  81.7050000   8.9980000  21.4660000  74.5370000
   9.2210000  22.6840000  74.5180000   9.5940000  20.5980000  73.7150000
   9.3410000  19.6210000  73.7520000  10.6040000  21.0440000  72.7660000
  10.6410000  22.1230000  72.9130000  11.9350000  20.3870000  73.0950000
  11.8360000  19.3080000  72.9770000  12.6940000  20.7600000  72.4070000
  12.3620000  20.6870000  74.5010000  12.9250000  21.9200000  74.8350000
  13.0830000  22.6590000  74.0630000  13.2850000  22.2110000  76.1460000
  13.7250000  23.1670000  76.3900000  13.0750000  21.2630000  77.1390000
  13.4280000  21.5240000  78.4520000  13.8110000  22.3910000  78.6050000
  12.5140000  20.0350000  76.8200000  12.3460000  19.2980000  77.5920000
  12.1690000  19.7570000  75.5050000  11.7420000  18.7960000  75.2610000
  10.2870000  20.9570000  71.2830000  10.9050000  21.6650000  70.5070000
   9.3800000  20.0650000  70.8830000   8.9710000  19.4390000  71.5620000
   8.9620000  19.9710000  69.4760000   9.3610000  20.8210000  68.9230000
   9.5130000  18.7040000  68.8060000   9.1670000  17.8400000  69.3740000
   9.1170000  18.6550000  67.7920000  11.0420000  18.6430000  68.7260000
  11.4540000  18.8190000  69.7200000  11.5130000  17.2750000  68.2920000
  11.1530000  16.5260000  68.9980000  11.1230000  17.0550000  67.2980000
  12.6030000  17.2570000  68.2670000  11.5490000  19.7290000  67.7960000
  11.1460000  19.5680000  66.7960000  11.2280000  20.7030000  68.1650000
  12.6380000  19.6960000  67.7580000   7.4300000  19.9730000  69.4360000
   6.7880000  19.2590000  70.2060000   6.8360000  20.7720000  68.5580000
   7.3930000  21.3440000  67.9400000   5.3750000  20.8250000  68.4840000
   4.9580000  20.2490000  69.3100000   4.8530000  22.2960000  68.6790000
   3.7790000  22.2420000  68.8570000   5.5830000  22.9340000  69.8540000
   5.4120000  22.3420000  70.7530000   6.6510000  22.9710000  69.6410000
   5.2080000  23.9460000  70.0090000   5.1000000  23.1550000  67.4490000
   6.1710000  23.2170000  67.2590000   4.6030000  22.7080000  66.5880000
   4.7020000  24.1560000  67.6190000   4.8630000  20.1510000  67.2010000
   4.9150000  20.7100000  66.0990000   4.4010000  18.9170000  67.3410000
   4.3640000  18.4960000  68.2580000   3.9440000  18.1620000  66.1760000
   4.0910000  18.7770000  65.2890000   4.7660000  16.8670000  66.0320000
   4.6480000  16.2790000  66.9420000   4.2640000  16.0350000  64.8700000
   3.2140000  15.7890000  65.0260000   4.3710000  16.6010000  63.9450000
   4.8460000  15.1160000  64.8030000   6.2450000  17.2060000  65.8470000
   6.3900000  17.5970000  64.8400000   6.5220000  17.9680000  66.5750000
   7.1510000  16.0010000  66.0360000   7.0290000  15.6100000  67.0460000
   6.8850000  15.2300000  65.3130000   8.1880000  16.2990000  65.8840000
   2.4670000  17.8400000  66.2820000   2.0390000  17.2050000  67.2550000
   1.7100000  18.2160000  65.2460000   2.1550000  18.6510000  64.4500000
   0.2580000  18.0200000  65.2230000  -0.1250000  18.8140000  65.8640000
  -0.3100000  18.1970000  63.8110000   0.2820000  17.5950000  63.1210000
  -1.3420000  17.8460000  63.8060000  -0.2870000  19.6650000  63.3280000
   0.7490000  20.0020000  63.3070000  -0.8510000  20.2680000  64.0390000
  -0.8890000  19.8750000  61.9350000  -1.1560000  18.7740000  61.2310000
  -1.1020000  21.0160000  61.4980000  -1.4930000  21.1380000  60.5750000
  -0.8850000  21.8230000  62.0650000  -0.2540000  16.7490000  65.8780000
  -0.9750000  16.8160000  66.8750000   0.1760000  15.5980000  65.3910000
   0.8180000  15.5800000  64.6110000  -0.2850000  14.3640000  65.9900000
  -1.3590000  14.4520000  66.1530000  -0.0900000  13.5560000  65.2840000
   0.3550000  13.9930000  67.3080000  -0.3050000  13.9360000  68.3450000
   1.6600000  13.7610000  67.2550000   2.1260000  13.8710000  66.3660000
   2.4610000  13.3570000  68.4050000   3.4140000  13.0280000  67.9900000
   2.7550000  14.5290000  69.3340000   2.3360000  14.3140000  70.3170000
   2.2890000  15.4270000  68.9280000   4.2440000  14.7710000  69.4770000
   4.9920000  13.7690000  69.4380000   4.6640000  15.9460000  69.6120000
   1.9300000  12.1260000  69.1480000   1.6640000  12.1400000  70.3600000
   1.8150000  11.0620000  68.3540000   2.0790000  11.1890000  67.3870000
   1.3480000   9.7330000  68.7350000   2.0090000   9.2170000  69.4320000
  -0.0050000   9.8100000  69.4530000   0.0580000  10.5880000  70.2140000
  -0.7640000  10.0800000  68.7190000  -0.4410000   8.5150000  70.1330000
  -0.9630000   8.7660000  71.0560000   0.4480000   7.9290000  70.3660000
  -1.3630000   7.6720000  69.2710000  -2.3870000   8.2070000  68.7970000
  -1.0670000   6.4750000  69.0740000   1.2250000   9.0250000  67.3730000
   2.2350000   8.5740000  66.8110000   0.0160000   9.0200000  66.8050000
  -0.7540000   9.4570000  67.2900000  -0.2280000   8.3990000  65.4970000
   0.7550000   8.4020000  65.0250000  -0.7680000   6.9740000  65.6520000
  -1.4240000   6.9540000  66.5220000  -1.3430000   6.7320000  64.7580000
   0.2900000   5.9000000  65.8360000   0.5420000   5.8220000  66.8940000
   1.1800000   6.1730000  65.2690000  -0.2250000   4.5530000  65.3430000
  -1.1420000   4.3070000  65.8790000   0.5290000   3.7910000  65.5430000
  -0.5060000   4.5790000  63.9080000  -0.1960000   5.3860000  63.3850000
  -1.1400000   3.6190000  63.2400000  -1.5770000   2.5380000  63.8720000
  -1.4250000   2.4380000  64.8660000  -2.0610000   1.8150000  63.3600000
  -1.3430000   3.7430000  61.9350000  -1.0160000   4.5660000  61.4490000
  -1.8240000   3.0140000  61.4270000  -1.1680000   9.1740000  64.5620000
  -0.9080000   9.2690000  63.3550000  -2.2450000   9.7270000  65.1260000
  -2.3640000   9.6330000  66.1240000  -3.2660000  10.4660000  64.3680000
  -3.8900000  10.9920000  65.0900000  -2.6480000  11.5130000  63.4310000
  -3.3660000  11.7260000  62.6390000  -1.7440000  11.0870000  62.9960000
  -2.2820000  12.8140000  64.0930000  -1.4760000  12.6290000  64.8030000
  -3.1550000  13.1920000  64.6250000  -1.7370000  14.0660000  62.9130000
  -3.2190000  15.0660000  62.7780000  -4.0410000  14.4500000  62.4130000
  -3.4750000  15.4700000  63.7570000  -3.0420000  15.8850000  62.0810000
  -4.1060000   9.4920000  63.5520000  -4.2380000   9.6360000  62.3310000
  -5.0580000   8.9810000  64.3760000  -4.8670000   9.0670000  65.3640000
  -6.2950000   8.3370000  64.0430000  -6.2840000   7.8680000  63.0590000
  -6.6410000   7.2440000  65.0670000  -7.6540000   6.8960000  64.8640000
  -6.6020000   7.6860000  66.0620000  -5.7240000   6.0530000  65.0470000
  -5.9880000   4.7410000  64.7940000  -6.9690000   4.3440000  64.5790000
  -4.8320000   3.9860000  64.8500000  -4.7290000   2.9210000  64.7000000
  -3.8850000   4.8560000  65.1270000  -4.3670000   6.1200000  65.2680000
  -3.7960000   7.0050000  65.5070000  -7.2840000   9.4790000  64.2350000
  -7.1200000  10.2720000  65.1630000  -8.2830000   9.6600000  63.3380000
  -8.3620000   9.0220000  62.5590000  -9.2410000  10.7400000  63.4600000
  -8.9440000  11.3120000  64.3390000  -9.2580000  11.7230000  62.2520000
  -9.3630000  11.1210000  61.3490000 -10.1350000  12.3600000  62.3680000
  -8.0330000  12.6620000  62.0390000  -8.3100000  13.3660000  61.2540000
  -7.7480000  13.5010000  63.2960000  -8.6430000  14.0590000  63.5710000
  -7.4650000  12.8420000  64.1160000  -6.9340000  14.1970000  63.0920000
  -6.7970000  11.9560000  61.4580000  -6.4310000  11.2180000  62.1720000
  -7.0670000  11.4570000  60.5270000  -6.0170000  12.6920000  61.2630000
 -10.6250000  10.1410000  63.5730000 -10.8070000   8.9830000  63.1960000
 -11.5860000  10.8580000  64.1610000 -11.2560000  11.5600000  65.3920000
 -10.3040000  11.2060000  65.7870000 -11.1980000  12.6340000  65.2120000
 -12.3920000  11.2440000  66.3750000 -12.1460000  10.3760000  66.9870000
 -12.5960000  12.0980000  67.0210000 -13.5920000  10.9480000  65.4650000
 -14.1560000  11.8580000  65.2610000 -14.2490000  10.2080000  65.9210000
 -12.9690000  10.4010000  64.1850000 -12.9970000   9.3120000  64.1550000
 -13.7460000  10.8820000  62.9850000 -13.3460000  11.8950000  62.4190000
 -14.8650000  10.1980000  62.6120000 -15.1150000   9.3820000  63.1520000
 -15.7250000  10.5530000  61.4970000 -15.9950000  11.6000000  61.6390000
 -15.0350000  10.4630000  60.1270000 -14.1600000  11.1120000  60.1330000
 -15.7330000  10.8000000  59.3610000 -14.6230000   9.1500000  59.8180000
 -13.6700000   9.1640000  59.7050000 -16.9590000   9.6690000  61.5030000
 -16.9690000   8.6720000  62.2210000 -18.0230000   9.9760000  60.7510000
 -17.9630000  10.8290000  59.5700000 -17.8600000  11.8740000  59.8620000
 -17.1210000  10.5430000  58.9390000 -19.2870000  10.6120000  58.8240000
 -19.6700000  11.5540000  58.4320000 -19.1590000   9.9030000  58.0060000
 -20.2290000  10.0430000  59.8990000 -20.9790000   9.3890000  59.4550000
 -20.7240000  10.8430000  60.4490000 -19.2850000   9.2590000  60.8050000
 -19.6110000   9.2010000  61.8440000 -19.2260000   7.8210000  60.3680000
 -18.5870000   7.5380000  59.3510000 -19.9150000   6.9160000  61.1100000
 -20.4400000   7.2450000  61.9070000 -19.9300000   5.5050000  60.8100000
 -19.7770000   5.4290000  59.7330000 -18.9030000   4.7480000  61.5690000
 -18.9060000   3.7060000  61.2510000 -17.5070000   5.3090000  61.3080000
 -17.2790000   5.2370000  60.2440000 -17.4720000   6.3540000  61.6170000
 -16.7730000   4.7370000  61.8760000 -19.2140000   4.8520000  62.9440000
 -19.1990000   5.7840000  63.1750000 -21.2130000   4.9140000  61.3270000
 -22.1780000   5.6110000  61.6190000 -21.2360000   3.5700000  61.4450000
 -20.4580000   3.0440000  61.0720000 -22.3080000   2.8460000  62.0730000
 -23.2250000   3.4340000  62.0350000 -22.5900000   1.5060000  61.3730000
 -22.9490000   1.6780000  60.3580000 -23.3340000   0.9380000  61.9310000
 -21.2650000   0.7550000  61.3440000 -20.4290000   1.0830000  60.4590000
 -21.0510000  -0.1120000  62.2350000 -21.8320000   2.5520000  63.4730000
 -20.8380000   3.1220000  63.9290000 -22.5090000   1.6630000  64.2280000
 -23.3780000   1.2520000  63.9180000 -21.9230000   1.3340000  65.5000000
 -21.5600000   2.2380000  65.9900000 -22.9360000   0.6910000  66.4440000
 -22.4730000   0.5320000  67.4180000 -23.2560000  -0.2660000  66.0330000
 -24.0630000   1.5420000  66.5910000 -23.9100000   2.3220000  66.0530000
 -20.8200000   0.3470000  65.2080000 -21.0730000  -0.7450000  64.6980000
 -19.5550000   0.7570000  65.4800000 -19.4330000   1.6410000  65.9530000
 -18.3730000   0.0030000  65.1330000 -18.6270000  -1.0500000  65.2510000
 -17.9260000   0.2540000  63.6680000 -18.7310000  -0.0390000  62.9940000
 -17.0390000  -0.3440000  63.4580000 -17.5970000   1.7370000  63.4430000
 -16.4250000   2.0160000  62.8170000 -18.3470000   2.6250000  63.8340000
 -18.0990000   3.5940000  63.6930000 -19.2130000   2.3870000  64.2970000
 -17.2240000   0.3990000  66.0390000 -17.3890000   1.2050000  66.9540000
 -16.0040000  -0.1680000  65.8140000 -15.9070000  -0.8700000  65.0940000
 -14.8460000   0.2220000  66.5920000 -15.1230000   0.1400000  67.6430000
 -13.5950000  -0.6740000  66.3990000 -13.4450000  -0.8430000  65.3330000
 -12.7270000  -0.1590000  66.8100000 -13.7390000  -2.0010000  67.0840000
 -13.5500000  -2.1070000  68.4450000 -13.3040000  -1.2250000  69.0180000
 -13.6700000  -3.3190000  69.0850000 -13.5240000  -3.3820000  70.1530000
 -13.9750000  -4.4490000  68.3650000 -14.0730000  -5.4010000  68.8650000
 -14.1540000  -4.3600000  67.0060000 -14.3910000  -5.2450000  66.4340000
 -14.0320000  -3.1440000  66.3720000 -14.1680000  -3.0850000  65.3020000
 -14.4750000   1.6130000  66.1420000 -14.2040000   1.8360000  64.9620000
 -14.5150000   2.5830000  67.0930000 -14.6830000   2.2730000  68.0400000
 -14.3450000   4.0110000  66.9070000 -14.8110000   4.0540000  65.9230000
 -15.1290000   4.9010000  67.9180000 -15.0460000   4.5000000  68.9280000
 -14.7540000   5.9240000  67.9010000 -16.5540000   4.8500000  67.4420000
 -16.8650000   5.4110000  66.2270000 -16.0860000   5.8910000  65.6530000
 -18.1440000   5.3760000  65.7240000 -18.3530000   5.8230000  64.7630000
 -19.1600000   4.7770000  66.4330000 -20.4760000   4.7410000  65.9060000
 -20.5650000   4.2830000  65.0670000 -18.8660000   4.2250000  67.6580000
 -19.6500000   3.7570000  68.2350000 -17.5770000   4.2630000  68.1600000
 -17.3680000   3.8280000  69.1260000 -12.9630000   4.6030000  66.6390000
 -12.9030000   5.6050000  65.9280000 -11.8230000   4.0570000  67.1430000
 -11.8530000   3.1380000  67.5620000 -10.5590000   4.7820000  67.0860000
 -10.8510000   5.6420000  67.6900000  -9.3340000   4.0640000  67.7280000
  -9.6740000   3.4870000  68.5880000  -8.8930000   3.3920000  66.9920000
  -8.2560000   5.0710000  68.1950000  -8.6400000   5.5570000  69.0910000
  -8.1430000   5.8090000  67.4010000  -6.8440000   4.5520000  68.5330000
  -6.2840000   4.3570000  67.6190000  -6.9080000   3.6370000  69.1220000
  -6.1820000   5.6370000  69.3280000  -6.7680000   6.1680000  69.9560000
  -4.8540000   5.9740000  69.2810000  -3.9720000   5.4620000  68.3760000
  -3.0040000   5.7510000  68.3940000  -4.2860000   4.7930000  67.6870000
  -4.3790000   6.8750000  70.1920000  -5.0020000   7.2760000  70.8780000
  -3.4050000   7.1400000  70.1790000 -10.1060000   5.2670000  65.7160000
  -9.5810000   6.3750000  65.6500000 -10.2380000   4.5300000  64.5900000
 -10.6760000   3.6200000  64.5830000  -9.7000000   5.1500000  63.3900000
  -9.3050000   6.1090000  63.7270000  -8.5820000   4.3230000  62.7320000
  -7.7850000   4.1490000  63.4550000  -8.9860000   3.3670000  62.3990000
  -8.1830000   4.8670000  61.8760000 -10.7630000   5.3160000  62.3430000
 -11.3400000   4.3310000  61.8840000 -11.0330000   6.5680000  61.8970000
 -10.5110000   7.3600000  62.2440000 -12.0930000   6.7530000  60.9060000
 -12.2410000   5.8050000  60.3900000 -13.3960000   7.1730000  61.5960000
 -13.2100000   8.1220000  62.0990000 -14.1470000   7.3150000  60.8190000
 -13.9810000   6.2080000  62.6330000 -13.2220000   5.9720000  63.3790000
 -15.1660000   6.8550000  63.3740000 -14.8290000   7.7610000  63.8770000
 -15.9490000   7.1060000  62.6580000 -15.5590000   6.1550000  64.1110000
 -14.4110000   4.9180000  61.9260000 -15.1700000   5.1490000  61.1790000
 -13.5470000   4.4660000  61.4390000 -14.8210000   4.2220000  62.6580000
 -11.6990000   7.8230000  59.8880000 -12.0640000   9.0020000  60.0350000
 -10.9590000   7.4030000  58.8630000 -10.7070000   6.4260000  58.8110000
 -10.5010000   8.3050000  57.8130000  -9.7960000   9.0020000  58.2660000
  -9.7750000   7.5280000  56.7090000  -9.9170000   8.0550000  55.7660000
 -10.2170000   6.5340000  56.6390000  -8.2900000   7.3760000  56.9540000
  -8.1280000   7.2270000  58.0220000  -7.7900000   8.2910000  56.6350000
  -7.5660000   5.9880000  56.0650000  -7.3460000   6.6900000  54.4330000
  -8.3130000   6.9990000  54.0370000  -6.6860000   7.5550000  54.4950000
  -6.9050000   5.9430000  53.7730000 -11.6470000   9.1350000  57.2330000
 -12.4410000   8.6510000  56.4100000 -11.7170000  10.3900000  57.6770000
 -11.0340000  10.7060000  58.3510000 -12.7420000  11.3250000  57.2270000
 -13.7230000  10.8980000  57.4360000 -12.6040000  12.6650000  57.9570000
 -13.4720000  13.2810000  57.7220000 -11.7000000  13.1620000  57.6050000
 -12.5160000  12.5070000  59.4590000 -11.5440000  11.8690000  59.9340000
 -13.4070000  13.0420000  60.1580000 -12.5620000  11.5720000  55.7450000
 -13.5300000  11.5340000  54.9730000 -11.3110000  11.8240000  55.3590000
 -10.5730000  11.8030000  56.0480000 -10.9740000  12.1290000  53.9710000
  -9.8950000  12.2310000  53.8560000 -11.4130000  10.9780000  53.0410000
 -11.9720000  10.2560000  53.6360000 -12.0630000  11.3940000  52.2710000
 -10.2620000  10.2340000  52.3440000 -10.5640000   9.1980000  52.1890000
  -9.3870000  10.2640000  52.9940000  -9.8810000  10.8390000  50.9860000
 -10.7950000  11.1020000  50.1610000  -8.6650000  11.0340000  50.7360000
 -11.6520000  13.4680000  53.5900000 -11.8990000  13.7590000  52.4070000
 -11.9370000  14.2740000  54.6190000 -11.6960000  13.9640000  55.5490000
 -12.5800000  15.5840000  54.4700000 -12.3770000  15.9420000  53.4610000
 -14.1040000  15.4730000  54.6710000 -14.2850000  15.1780000  55.7050000
 -14.5380000  16.4570000  54.4930000 -14.8260000  14.4660000  53.7590000
 -15.8580000  14.3710000  54.0980000 -14.3250000  13.5020000  53.8440000
 -14.8360000  14.8790000  52.2860000 -15.2460000  16.0240000  51.9850000
 -14.4440000  14.0530000  51.4300000 -12.0130000  16.5760000  55.4940000
 -11.3860000  16.1800000  56.4840000 -12.2810000  17.8620000  55.2690000
 -12.8420000  18.1110000  54.4670000 -11.7890000  18.9270000  56.1460000
 -11.0030000  18.5230000  56.7840000 -11.2060000  20.0740000  55.2970000
 -10.5830000  20.6980000  55.9370000 -12.0300000  20.6680000  54.9020000
 -10.3510000  19.5730000  54.1160000 -10.9390000  19.2420000  53.0540000
  -9.1000000  19.5170000  54.2480000 -12.9190000  19.4490000  57.0460000
 -13.3090000  20.6220000  56.9610000 -13.4100000  18.5900000  57.9400000
 -13.0170000  17.6620000  58.0070000 -14.5120000  18.9730000  58.8270000
 -14.4270000  20.0580000  58.8770000 -15.8350000  18.4980000  58.2290000
 -16.5220000  18.2700000  59.0440000 -15.6480000  17.5950000  57.6480000
 -16.4810000  19.5230000  57.3290000 -17.4010000  19.1010000  56.9240000
 -15.7960000  19.7510000  56.5130000 -16.8870000  21.0800000  58.2050000
 -17.4480000  20.4750000  59.8230000 -18.3120000  19.8250000  59.6880000
 -16.6440000  19.9150000  60.3010000 -17.7250000  21.3220000  60.4510000
 -14.4410000  18.5370000  60.2870000 -14.2970000  17.3540000  60.5850000
 -14.6290000  19.4920000  61.1930000 -14.8050000  20.4400000  60.8910000
 -14.5840000  19.1850000  62.6200000 -14.3500000  18.1210000  62.6610000
 -13.4620000  19.9700000  63.3300000 -12.5010000  19.5660000  63.0110000
 -13.5730000  19.8370000  64.4060000 -13.4860000  21.4610000  63.0220000
 -13.2170000  21.8350000  61.8540000 -13.7560000  22.2520000  63.9580000
 -15.9170000  19.2960000  63.3650000 -15.9540000  19.2830000  64.6010000
 -17.0030000  19.4310000  62.6080000 -16.8950000  19.5080000  61.6070000
 -18.3500000  19.4710000  63.1800000 -18.2810000  19.5760000  64.2630000
 -19.1440000  20.6850000  62.6850000 -20.2000000  20.4190000  62.6470000
 -18.7990000  20.9430000  61.6840000 -18.9790000  21.9060000  63.5890000
 -19.4690000  21.8850000  64.7380000 -18.3650000  22.9000000  63.1450000
 -19.0630000  18.1500000  62.8240000 -20.2860000  18.0300000  62.8840000
 -18.2690000  17.1600000  62.4400000 -17.2750000  17.3270000  62.3780000
 -18.7820000  15.8460000  62.1060000 -19.6550000  15.9560000  61.4630000
 -17.7270000  15.0110000  61.3240000 -17.6990000  15.3770000  60.2980000
 -16.3570000  15.1760000  61.9400000 -16.0800000  16.2300000  61.9330000
 -16.3740000  14.8120000  62.9670000 -15.6290000  14.6050000  61.3640000
 -18.1120000  13.5380000  61.3100000 -18.1430000  13.1610000  62.3320000
 -19.0940000  13.4230000  60.8510000 -17.3750000  12.9750000  60.7370000
 -19.1640000  15.1310000  63.4000000 -18.4560000  15.2200000  64.4090000
 -20.3150000  14.4730000  63.3840000 -20.8800000  14.4840000  62.5470000
 -20.7800000  13.7370000  64.5460000 -19.9510000  13.5600000  65.2310000
 -21.8250000  14.5460000  65.3790000 -21.4680000  15.5730000  65.4590000
 -23.1750000  14.5900000  64.6940000 -23.0660000  15.0350000  63.7050000
 -23.5660000  13.5770000  64.5960000 -23.8650000  15.1900000  65.2880000
 -21.9490000  13.9610000  66.7590000 -22.3050000  12.9330000  66.6870000
 -20.9750000  13.9740000  67.2480000 -22.6560000  14.5510000  67.3420000
 -21.3360000  12.4110000  64.0540000 -21.9770000  12.3400000  63.0240000
 -21.0280000  11.3450000  64.7630000 -20.4660000  11.4460000  65.5960000
 -21.4850000  10.0310000  64.3640000 -21.3040000   9.8940000  63.2980000
 -20.7020000   8.9790000  65.1430000 -21.0030000   9.0250000  66.1900000
 -19.6390000   9.2040000  65.0600000 -20.9380000   7.5890000  64.6380000
 -22.0050000   7.0330000  64.9530000 -20.0620000   7.0530000  63.9290000
 -22.9950000   9.8780000  64.5740000 -23.5630000  10.4230000  65.5200000
 -23.6390000   9.1350000  63.6770000 -23.1130000   8.7130000  62.9250000
 -25.0760000   8.9100000  63.7430000 -25.5220000   9.8980000  63.6310000
 -25.5200000   7.9960000  62.6200000 -25.2090000   8.4170000  61.6640000
 -25.0650000   7.0140000  62.7490000 -26.6060000   7.8990000  62.6380000
 -25.5900000   8.3870000  65.0810000 -26.6360000   8.8250000  65.5450000
 -24.9060000   7.4380000  65.7090000 -24.0590000   7.0450000  65.3240000
 -25.4480000   6.9990000  66.9830000 -26.5220000   7.0070000  66.7980000
 -25.0990000   5.5440000  67.3370000 -25.8010000   4.8870000  66.8240000
 -25.2040000   5.4170000  68.4140000 -23.7060000   5.1460000  66.9470000
 -22.7630000   5.8960000  67.2640000 -23.5520000   4.0480000  66.3670000
 -25.3180000   7.9790000  68.1560000 -25.6680000   7.6590000  69.2880000
 -24.8960000   9.2050000  67.8490000 -24.6470000   9.4000000  66.8900000
 -24.7750000  10.2840000  68.8310000 -25.0330000   9.8730000  69.8070000
 -23.3530000  10.8270000  68.9150000 -22.8850000  10.7010000  67.9390000
 -23.4110000  11.8890000  69.1560000 -22.4710000  10.1610000  69.9460000
 -23.0750000   9.9280000  70.8230000 -21.6780000  10.8540000  70.2250000
 -21.8420000   8.8880000  69.4440000 -20.9790000   8.9710000  68.5480000
 -22.2010000   7.8040000  69.9470000 -25.7290000  11.4230000  68.4570000
 -25.8670000  12.3940000  69.1910000 -26.3710000  11.3100000  67.2980000
 -26.1920000  10.5060000  66.7140000 -27.3240000  12.3130000  66.8480000
 -27.2060000  13.2290000  67.4260000 -27.0860000  12.6720000  65.3830000
 -26.0250000  12.8770000  65.2400000 -27.3790000  11.8250000  64.7630000
 -27.8720000  13.8770000  64.9560000 -27.5120000  15.1370000  65.3970000
 -26.6170000  15.2540000  65.9900000 -28.2740000  16.2510000  65.0940000
 -27.9760000  17.2260000  65.4490000 -29.4100000  16.1090000  64.3400000
 -30.1690000  17.2260000  64.0740000 -30.9600000  17.0650000  63.5550000
 -29.7910000  14.8600000  63.8760000 -30.6840000  14.7510000  63.2780000
 -29.0190000  13.7520000  64.1840000 -29.3130000  12.7790000  63.8190000
 -28.7280000  11.7380000  67.0410000 -29.1980000  10.9250000  66.2330000
 -29.3900000  12.1720000  68.1140000 -28.9540000  12.8620000  68.7080000
 -30.7290000  11.6840000  68.4640000 -30.9010000  10.8290000  67.8100000
 -30.7540000  11.2570000  69.9400000 -30.6070000  12.1450000  70.5540000
 -31.7320000  10.8250000  70.1530000 -29.6780000  10.2240000  70.3220000
 -28.7130000  10.6120000  69.9950000 -29.6240000  10.0230000  71.8000000
 -29.4180000  10.9750000  72.2890000 -30.5810000   9.6350000  72.1490000
 -28.8340000   9.3120000  72.0410000 -29.9380000   8.9060000  69.6270000
 -30.9020000   8.5100000  69.9480000 -29.9490000   9.0600000  68.5480000
 -29.1500000   8.1980000  69.8850000 -31.8990000  12.6210000  68.1370000
 -31.7080000  13.8140000  67.8670000 -33.1030000  12.0460000  68.1850000
 -33.1370000  11.0750000  68.4610000 -34.3860000  12.6970000  67.8720000
 -34.4700000  12.5050000  66.8020000 -35.5800000  12.0230000  68.6680000
 -36.4410000  12.0410000  68.0000000 -35.2200000  10.5900000  69.0490000
 -34.9780000  10.0250000  68.1490000 -34.3580000  10.5970000  69.7160000
 -36.0670000  10.1250000  69.5540000 -35.9500000  12.7870000  69.9440000
 -36.1260000  12.0640000  70.7400000 -35.1130000  13.4300000  70.2160000
 -37.1960000  13.6540000  69.7970000 -37.0310000  14.3990000  69.0190000
 -38.0450000  13.0270000  69.5250000 -37.4030000  14.1560000  70.7420000
 -34.4810000  14.2440000  67.8910000 -34.5030000  14.8770000  68.9540000
 -34.4120000  14.8750000  66.7020000 -33.9260000  14.3000000  65.4330000
 -32.8700000  14.0390000  65.4970000 -34.5020000  13.4180000  65.1540000
 -34.1530000  15.4400000  64.4480000 -33.4940000  15.3530000  63.5840000
 -35.1900000  15.4720000  64.1120000 -33.8130000  16.6360000  65.2700000
 -34.2050000  17.5470000  64.8180000 -32.7350000  16.7300000  65.4000000
 -34.5050000  16.3390000  66.6030000 -34.0520000  16.8570000  67.4490000
 -35.9670000  16.7980000  66.5780000 -36.8860000  15.9900000  66.3840000
 -36.1990000  18.0340000  66.4940000
